<?xml version="1.0"?>
<VTKFile type="PolyData" version="0.1" byte_order="LittleEndian" compressor="vtkZLibDataCompressor">
  <PolyData>
    <Piece NumberOfPoints="589" NumberOfVerts="0" NumberOfLines="6" NumberOfStrips="0" NumberOfPolys="0">
      <PointData Scalars="scalars">
        <DataArray type="Float32" Name="scalars" format="ascii">
          0 3.7906e-09 1.6158e-07 6.5565e-07 1.3748e-06 1.9283e-06
          2.3792e-06 2.5777e-06 1.7089e-05 0.013945 0.092442 0.17546
          0.24198 0.29394 0.33548 0.36974 0.39885 0.42418
          0.44665 0.4525 0.45155 0.45045 0.44374 0.43741
          0.42971 0.41876 0.39612 0.36963 0.33497 0
          1.0065e-08 1.2567e-07 2.6412e-07 4.1949e-07 5.8616e-07 7.0137e-07
          7.3992e-07 1.0075e-05 0.00015458 0.002197 0.030016 0.094047
          0.15453 0.20478 0.24659 0.28212 0.31293 0.34006
          0.36424 0.38599 0.4057 0.39212 0.38765 0.38699
          0.38317 0.37934 0.37348 0.36022 0.3327 0.30941
          0.28299 0.25464 0.22982 0.20763 0.18818 0.17082
          0.15516 0.14112 0.1287 0.11717 0.10641 0.096533
          0.087047 0.078368 0.070024 0.062911 0.056313 0.05007
          0.044471 0.039421 0.034851 0.030715 0.026972 0.023588
          0.020526 0.017752 0.015247 0.012988 0.010958 0.0091381
          0.0075143 0.0060739 0.0048058 0.0037002 0.0027489 0.0019461
          0.0012864 0.00076569 0.00038072 0.00012936 1.0496e-05 0
          0 0 0 0 0 0
          0 0 3.1216e-09 8.6071e-09 1.3687e-08 1.8125e-08
          2.1847e-08 2.4814e-08 2.6996e-08 2.8368e-08 2.899e-08 0.0017666
          0.028925 0.074296 0.11974 0.16002 0.19587 0.22849
          0.25778 0.28365 0.30656 0.32691 0.34506 0.35089
          0.30184 0.26388 0.24335 0.22538 0.21337 0.20478
          0.20063 0.19958 0.19907 0.19859 0.19777 0.197
          0.19625 0.19546 0.19453 0.19354 0.19228 0.19085
          0.18977 0.18876 0.18777 0.18688 0.18613 0.18548
          0.18473 0.18398 0.18328 0.18258 0.18192 0.18113
          0.18034 0.17952 0.17871 0.17786 0.177 0.17615
          0.17492 0.17365 0.17231 0.17054 0.16857 0.16636
          0.16405 0.16139 0.1585 0.15549 0.15234 0.14905
          0.14569 0.14223 0.13869 0.13509 0.13142 0.12768
          0.12389 0.12008 0.11626 0.11245 0.10866 0.10489
          0.10116 0.097465 0.093816 0.090213 0.086659 0.083122
          0.079535 0.076005 0.072548 0.069294 0.066111 0.063004
          0.059937 0.056977 0.054072 0.051234 0.048446 0.045755
          0.043126 0.040567 0.038076 0.035645 0.03329 0.030985
          0.028763 0.026596 0.024493 0.022439 0.020477 0.018594
          0.01679 0.015033 0.01332 0.011649 0.010057 0.0085592
          0.0072076 0.0059668 0.0048536 0.0038506 0.002949 0.002166
          0.001506 0.00096679 0.00054672 0.00024522 6.2579e-05 0
          0 0 0 0 0 0
          0 0 0 0 0 0
          0 0 0 0 0 0
          0 0 0 0 1.2413e-09 3.1968e-09
          4.9567e-09 6.5509e-09 7.901e-09 8.9942e-09 9.8222e-09 1.0375e-08
          1.0665e-08 0.0027483 0.031755 0.071336 0.11023 0.14645
          0.17944 0.2092 0.23601 0.26036 0.28282 0.30294
          0.32091 0.337 0.31068 0.22422 0.15347 0.11604
          0.089488 0.071086 0.057512 0.047602 0.039354 0.032518
          0.026731 0.021781 0.01751 0.013886 0.010784 0.0081564
          0.0059557 0.0041435 0.0026872 0.0015604 0.00074741 0.0002336
          9.8124e-06 0 0 0 0 0
          0 0 0 0 0 0
          0 0 0 0 0 0
          0 0 0 0 0 0
          0 0 0 0 0 0
          0 0 0 0 0 0
          0 0 0 0 0 0
          0 0 0 0 0 0
          0 0 0 0 0 0
          0 0 0 0 0 0
          0 0 0 0 0 0
          0 0 0 0 0 0
          0 0 0 0 0 0
          0 0 0 0 0 0
          0 0 0 0 0 0
          0 0 0 0 0 0
          0 0 0 0 0 0
          0 0 0 0 0 0
          0 0 0 0 0 0
          0 0 0 0 0 0
          0 0 0 0 0 0
          0 1.6962e-08 5.8426e-08 9.6218e-08 1.2915e-07 1.5644e-07
          1.7741e-07 1.9078e-07 1.9968e-07 4.4178e-05 0.0052852 0.047622
          0.10261 0.15184 0.19415 0.2308 0.26294 0.29143
          0.31687 0.33976 0.36423 0.37448 0.36014 0.31897
          0.27485 0.26563 0.26523 0.26286 0.2606 0.25788
          0.25454 0.24329 0.22782 0.21101 0.19434 0.17795
          0.16169 0.14655 0.13294 0.12009 0.10826 0.097823
          0.0885 0.080006 0.072241 0.064974 0.05812 0.051758
          0.045904 0.040624 0.035872 0.031587 0.027715 0.024218
          0.021055 0.018199 0.015624 0.013306 0.011224 0.0093594
          0.0076961 0.0062211 0.0049226 0.003791 0.0028178 0.0019962
          0.0013207 0.00078722 0.00039233 0.00013402 1.1216e-05 0
          0 0 0 0 0 1.1307e-08
          3.6261e-08 5.8678e-08 7.8127e-08 9.4291e-08 1.0689e-07 1.1569e-07
          1.2026e-07 3.7202e-06 0.0022508 0.038411 0.091552 0.14088
          0.18366 0.22082 0.25344 0.28236 0.30819 0.3314
          0.36098 0.37029 0.363 0.35034 0.34296 0.34254
          0.34192 0.33872 0.33654 0.33261 0.32941 0.32038
          0.29856 0.27802 0.25781 0.23791 0.21864 0.19971
          0.18198 0.16593 0.15126 0.13785 0.12558 0.11436
          0.10408 0.094649 0.085985 0.077993 0.070601 0.063753
          0.057394 0.051477 0.04596 0.04081 0.036065 0.03178
          0.027908 0.024408 0.021239 0.018375 0.015791 0.013464
          0.011371 0.0094956 0.0078212 0.0063347 0.0050246 0.003881
          0.0028958 0.0020622 0.0013747 0.00082903 0.00042197 0.00015151
          1.6613e-05 0 0 0 0 0
          0
        </DataArray>
      </PointData>
      <CellData>
      </CellData>
      <Points>
        <DataArray type="Float32" NumberOfComponents="3" format="ascii">
          0.26672 0.26672 19.0273 0.276458 0.271748 19.0149
          0.292353 0.283704 19.0046 0.328623 0.313486 18.9858
          0.371657 0.349812 18.967 0.40859 0.381267 18.9523
          0.438438 0.406818 18.941 0.450738 0.417347 18.9365
          0.501512 0.460807 18.919 0.67263 0.604865 18.8717
          0.772538 0.685422 18.8513 0.814358 0.718058 18.8447
          0.833809 0.733014 18.8421 0.842993 0.740034 18.841
          0.847322 0.743314 18.8405 0.849323 0.744822 18.8402
          0.850242 0.745511 18.8401 0.850635 0.745806 18.8401
          0.850832 0.74597 18.8401 1.01231 0.863001 18.8306
          1.31111 1.05914 18.6672 1.7158 1.14374 17.4155
          1.63692 0.594336 15.6604 1.34998 -0.0406589 14.2654
          0.92637 -0.465038 12.7474 0.820033 -0.692736 10.6174
          0.693523 -0.90423 7.49349 0.677746 -1.12537 4.56511
          0.576526 -1.36218 2.03852 -0.14435 0.3485 19.0273
          -0.145832 0.357979 19.0166 -0.149066 0.372313 19.0095
          -0.153579 0.390714 19.0018 -0.158578 0.409705 18.9947
          -0.163098 0.42581 18.989 -0.166047 0.435912 18.9856
          -0.167041 0.439258 18.9845 -0.177687 0.473993 18.9734
          -0.191011 0.51601 18.9608 -0.211672 0.579314 18.9442
          -0.243638 0.675221 18.9247 -0.260885 0.726946 18.9168
          -0.268445 0.74971 18.9138 -0.27206 0.760632 18.9124
          -0.273805 0.765946 18.9118 -0.274648 0.768471 18.9115
          -0.275048 0.769685 18.9113 -0.275238 0.770275 18.9113
          -0.275323 0.770538 18.9112 -0.275366 0.770669 18.9112
          -0.275382 0.770702 18.9112 -0.368278 1.07433 18.8974
          -0.461398 1.42749 18.8444 -0.487605 1.85789 17.983
          -0.195203 1.80623 16.7773 0.198902 1.55636 15.2969
          0.576099 1.04753 14.1437 0.790775 0.699526 12.0612
          0.939064 0.523127 9.73537 1.02316 0.447326 8.03338
          1.11707 0.395863 6.3691 1.24082 0.37123 4.84882
          1.36356 0.359258 3.72411 1.47967 0.346827 2.95069
          1.57775 0.307815 2.50395 1.67024 0.233907 2.29272
          1.78009 0.150952 2.22483 1.9148 0.0790578 2.23762
          2.07631 0.0256604 2.30453 2.26461 -0.0152205 2.4003
          2.45872 -0.049997 2.50395 2.63145 -0.0796581 2.61449
          2.78862 -0.104609 2.72666 2.92379 -0.126346 2.83031
          3.04368 -0.145655 2.9274 3.13739 -0.16274 3.00743
          3.20804 -0.178376 3.0727 3.26681 -0.192841 3.13011
          3.31542 -0.205446 3.17963 3.35446 -0.216339 3.22326
          3.38562 -0.225779 3.26327 3.41087 -0.233946 3.29935
          3.43088 -0.241001 3.33248 3.44761 -0.247105 3.36331
          3.46106 -0.252412 3.39152 3.47188 -0.25704 3.41809
          3.48106 -0.261091 3.44269 3.48861 -0.264644 3.46532
          3.49484 -0.26776 3.48664 3.50009 -0.270492 3.50599
          3.50435 -0.272886 3.52403 3.50829 -0.274976 3.54043
          3.51124 -0.276789 3.55487 3.51386 -0.278354 3.56798
          3.51583 -0.279686 3.57914 3.5178 -0.280804 3.58898
          3.51911 -0.281716 3.59718 3.5201 -0.282431 3.60374
          3.52108 -0.282959 3.60833 3.52141 -0.283303 3.61161
          3.52174 -0.283464 3.61325 3.54109 -0.299313 3.78217
          3.57159 -0.363949 4.93837 3.57553 -0.43155 6.61314
          3.57192 -0.499446 8.28233 3.55847 -0.587317 10.1729
          3.52108 -0.726225 12.4391 3.48336 -0.80993 13.6199
          3.45515 -0.848766 14.1676 -0.3485 0.14435 19.0273
          -0.349353 0.150785 19.0219 -0.349681 0.151277 19.0216
          -0.350042 0.151743 19.0212 -0.350402 0.152156 19.0209
          -0.35073 0.152507 19.0207 -0.350993 0.152786 19.0205
          -0.351222 0.152992 19.0203 -0.351354 0.153124 19.0202
          -0.351386 0.153179 19.0202 -0.364375 0.163091 19.0128
          -0.372772 0.168582 19.0085 -0.375626 0.17036 19.0071
          -0.3772 0.171337 19.0064 -0.378446 0.172111 19.0058
          -0.379463 0.172744 19.0053 -0.380349 0.173282 19.0049
          -0.38107 0.173728 19.0046 -0.381694 0.174102 19.0043
          -0.382218 0.174417 19.0041 -0.382645 0.174686 19.0039
          -0.383038 0.174916 19.0037 -0.386712 0.17713 19.0022
          -0.412755 0.192192 18.9924 -0.453919 0.215519 18.9808
          -0.518929 0.252199 18.9719 -0.632187 0.318911 18.9713
          -0.808323 0.427122 18.9751 -1.00647 0.552254 18.9772
          -1.17437 0.660428 18.9745 -1.25696 0.733047 18.9571
          -1.30331 0.826494 18.8762 -1.39456 0.931028 18.7071
          -1.46905 1.04192 18.4898 -1.49601 1.08998 18.3012
          -1.50539 1.12179 18.1419 -1.50227 1.1462 17.9862
          -1.48728 1.16571 17.8203 -1.4637 1.17991 17.6603
          -1.42985 1.19182 17.4842 -1.39115 1.19966 17.3161
          -1.36235 1.20287 17.1978 -1.33542 1.20579 17.0875
          -1.30885 1.21045 16.9765 -1.28419 1.2156 16.872
          -1.26146 1.22 16.7759 -1.23774 1.22239 16.6793
          -1.20458 1.22292 16.5574 -1.16916 1.22383 16.4439
          -1.13275 1.22472 16.3406 -1.09483 1.22351 16.2418
          -1.05577 1.22059 16.1479 -1.00716 1.21724 16.0389
          -0.956317 1.21426 15.9332 -0.90387 1.2113 15.8279
          -0.853095 1.20806 15.7289 -0.800976 1.20396 15.6302
          -0.749447 1.19894 15.5367 -0.697984 1.19399 15.4514
          -0.617362 1.18562 15.3366 -0.537559 1.17372 15.2225
          -0.461037 1.15814 15.109 -0.375199 1.13508 14.9732
          -0.297322 1.10936 14.8384 -0.228974 1.08289 14.7069
          -0.172922 1.058 14.5868 -0.122521 1.03287 14.4628
          -0.0820098 1.01037 14.3441 -0.0492 0.99056 14.2316
          -0.021319 0.972586 14.1204 0.00257696 0.956382 14.0102
          0.0234061 0.942147 13.9013 0.0421185 0.929749 13.7921
          0.0590597 0.91899 13.6835 0.074538 0.910036 13.5759
          0.0888749 0.902722 13.469 0.102057 0.896916 13.3644
          0.114282 0.892521 13.2627 0.125749 0.889274 13.1633
          0.136573 0.886978 13.0669 0.146846 0.885436 12.9737
          0.156663 0.884518 12.8835 0.16606 0.884091 12.7963
          0.175044 0.88396 12.7123 0.183647 0.883993 12.6316
          0.19189 0.884222 12.5539 0.199782 0.884518 12.4794
          0.207319 0.884813 12.4079 0.214581 0.885042 12.3384
          0.221708 0.885239 12.2702 0.228504 0.885403 12.2046
          0.234937 0.885436 12.1419 0.240801 0.88537 12.0842
          0.246361 0.885206 12.0294 0.251625 0.884977 11.9766
          0.256667 0.884714 11.9258 0.261393 0.884354 11.8779
          0.265893 0.883927 11.8313 0.270164 0.883468 11.787
          0.274244 0.882976 11.744 0.278078 0.882418 11.7034
          0.281732 0.881861 11.664 0.285199 0.88127 11.6263
          0.288509 0.88068 11.5902 0.291674 0.88009 11.5551
          0.294685 0.879466 11.5213 0.297578 0.878876 11.4889
          0.300317 0.878253 11.4577 0.302944 0.877662 11.4272
          0.30545 0.877039 11.3983 0.307861 0.876449 11.3701
          0.310131 0.875858 11.3432 0.312279 0.875301 11.3176
          0.314309 0.874743 11.293 0.316264 0.874186 11.2694
          0.318144 0.873661 11.2465 0.319954 0.873136 11.2245
          0.321656 0.872644 11.2032 0.323234 0.872152 11.1838
          0.324648 0.871726 11.1661 0.325927 0.871332 11.15
          0.327068 0.870971 11.1356 0.328098 0.870676 11.1225
          0.329017 0.870381 11.111 0.329804 0.870118 11.1008
          0.33046 0.869922 11.0923 0.330985 0.869758 11.0854
          0.331411 0.869626 11.0802 0.331706 0.869528 11.0762
          0.33187 0.869462 11.0739 0.332002 0.86943 11.072
          0.354535 0.861754 10.7666 0.379004 0.853653 10.4035
          0.404522 0.847388 9.99679 0.442439 0.844338 9.36932
          0.490786 0.848602 8.59327 0.532377 0.855194 7.8966
          0.547694 0.857786 7.63223 0.605324 0.870414 6.67611
          0.619264 0.875071 6.45963 0.64557 0.885764 6.06734
          0.724158 0.927223 5.00889 0.778246 0.958547 4.33419
          0.819246 0.981835 3.83826 0.868052 1.00627 3.24818
          0.903345 0.998432 2.7247 0.918859 0.898556 2.30322
          0.908462 0.652425 1.93159 0.877138 0.494722 1.77087
          0.830529 0.360866 1.5721 0.797565 0.29788 1.39794
          0.804584 0.201907 1.0027 -0.3485 -0.14435 19.0273
          -0.350468 -0.143894 19.0224 -0.350599 -0.143923 19.0223
          -0.350763 -0.143956 19.0222 -0.350927 -0.143989 19.022
          -0.351058 -0.144022 19.0219 -0.351157 -0.144051 19.0219
          -0.351255 -0.144071 19.0218 -0.351321 -0.144087 19.0218
          -0.351354 -0.144097 19.0218 -0.36021 -0.146728 19.0172
          -0.363654 -0.147794 19.0156 -0.365195 -0.148282 19.0149
          -0.366278 -0.14862 19.0144 -0.367065 -0.148869 19.014
          -0.367655 -0.14906 19.0137 -0.368147 -0.149214 19.0135
          -0.368541 -0.149335 19.0133 -0.368836 -0.14944 19.0132
          -0.369131 -0.149529 19.0131 -0.369361 -0.149601 19.0129
          -0.369558 -0.149663 19.0129 -0.369722 -0.149716 19.0128
          -0.374018 -0.151136 19.0109 -0.382514 -0.154048 19.0074
          -0.390845 -0.157007 19.0043 -0.397405 -0.159405 19.0021
          -0.403998 -0.161855 19 -0.410164 -0.164207 18.9983
          -0.415806 -0.166411 18.9968 -0.420201 -0.168175 18.9958
          -0.424104 -0.16975 18.9949 -0.427581 -0.17117 18.9941
          -0.43073 -0.172456 18.9935 -0.433518 -0.17361 18.9929
          -0.436076 -0.17465 18.9924 -0.438306 -0.175565 18.992
          -0.440242 -0.176372 18.9916 -0.441947 -0.177074 18.9913
          -0.443423 -0.177674 18.991 -0.44467 -0.178179 18.9908
          -0.445654 -0.178593 18.9906 -0.446441 -0.178914 18.9904
          -0.447031 -0.17915 18.9903 -0.447392 -0.179298 18.9903
          -0.447556 -0.179364 18.9902 -0.469106 -0.188151 18.9869
          -0.50325 -0.201881 18.9834 -0.544611 -0.218668 18.9818
          -0.593942 -0.238722 18.9819 -0.664134 -0.266365 18.9832
          -0.778803 -0.311085 18.9848 -0.897572 -0.357586 18.9857
          -1.0517 -0.417446 18.9869 -1.11041 -0.440602 18.987
          -1.16637 -0.463005 18.9857 -1.22003 -0.485014 18.9829
          -1.26923 -0.508761 18.9771 -1.32128 -0.557994 18.9516
          -1.345 -0.580593 18.932 -1.36392 -0.592696 18.9172
          -1.38226 -0.60188 18.9017 -1.39944 -0.610867 18.8813
          -1.41522 -0.619953 18.8522 -1.44622 -0.636123 18.7662
          -1.48666 -0.644782 18.6766 -1.53934 -0.647636 18.5601
          -1.5869 -0.639567 18.4029 -1.62029 -0.626447 18.2116
          -1.63866 -0.580855 17.8736 -1.62672 -0.515846 17.5305
          -1.61484 -0.479733 17.3623 -1.60146 -0.449327 17.2222
          -1.58847 -0.421775 17.0969 -1.57824 -0.394223 16.9765
          -1.56725 -0.36713 16.8564 -1.55069 -0.334691 16.7177
          -1.52189 -0.286534 16.5523 -1.49066 -0.226953 16.3781
          -1.46111 -0.177438 16.24 -1.43175 -0.134352 16.1234
          -1.39292 -0.0763354 15.9759 -1.35303 -0.0156279 15.84
          -1.31413 0.0416888 15.723 -1.28143 0.0894948 15.6338
          -1.25316 0.129478 15.5633 -1.22721 0.164672 15.5029
          -1.20802 0.189725 15.4593 -1.18841 0.214525 15.4153
          -1.17158 0.235045 15.3773 -1.15472 0.254905 15.3396
          -1.1375 0.274477 15.3009 -1.11999 0.293813 15.2609
          -1.10224 0.312863 15.2199 -1.08424 0.331608 15.1772
          -1.06679 0.349222 15.1352 -1.0517 0.363949 15.0982
          -1.04048 0.37451 15.0696 -1.02917 0.384842 15.0395
          -1.01772 0.394912 15.0073 -1.00611 0.404785 14.9732
          -0.994365 0.414362 14.9374 -0.982491 0.42371 14.8997
          -0.970847 0.432566 14.861 -0.959269 0.441062 14.821
          -0.947526 0.449426 14.7784 -0.93562 0.457626 14.7331
          -0.923582 0.465662 14.6855 -0.911578 0.473402 14.6357
          -0.895309 0.483439 14.5655 -0.876646 0.494329 14.4828
          -0.858212 0.50453 14.3985 -0.839614 0.51414 14.311
          -0.818754 0.524308 14.2093 -0.79845 0.533918 14.105
          -0.784674 0.540249 14.0312 -0.773555 0.545398 13.9662
          -0.762534 0.550646 13.896 -0.751743 0.555993 13.8203
          -0.741214 0.561503 13.7389 -0.730751 0.567407 13.6491
          -0.720747 0.57377 13.551 -0.711235 0.580724 13.4434
          -0.702248 0.588399 13.325 -0.69185 0.59942 13.1594
          -0.671154 0.631761 12.7244 -0.656722 0.660789 12.3784
          -0.64839 0.676533 12.1934 -0.641765 0.687849 12.055
          -0.634549 0.699001 11.9103 -0.62671 0.70989 11.7588
          -0.617427 0.721338 11.5866 -0.606866 0.732949 11.395
          -0.595582 0.744002 11.1946 -0.581938 0.75604 10.9552
          -0.567932 0.767684 10.7079 -0.55373 0.77959 10.4491
          -0.539724 0.792317 10.1785 -0.528998 0.803403 9.95316
          -0.518863 0.815572 9.7147 -0.50945 0.828889 9.46247
          -0.500659 0.843682 9.19122 -0.492262 0.860082 8.89536
          -0.483964 0.878023 8.569 -0.475436 0.897802 8.20098
          -0.462874 0.928732 7.60894 -0.455592 0.948609 7.2347
          -0.453886 0.953726 7.14122 -0.448999 0.970618 6.84339
          -0.440274 1.02431 6.02634 -0.438241 1.06472 5.51401
          -0.437749 1.10506 5.05219 -0.437618 1.138 4.69893
          -0.437486 1.16571 4.41258 -0.43706 1.19622 4.10525
          -0.436273 1.22856 3.79299 -0.434305 1.26674 3.44466
          -0.429385 1.30121 3.13765 -0.417905 1.32981 2.8677
          -0.392354 1.35005 2.62794 -0.3444 1.35953 2.41736
          -0.275369 1.35461 2.25008 -0.196246 1.33526 2.12675
          -0.111668 1.30003 2.02999 -0.0400127 1.26024 1.96111
          0.0230026 1.22167 1.90371 0.117378 1.15108 1.82302
          0.188039 1.09575 1.76661 0.262334 1.05127 1.69773
          0.285337 1.03855 1.66657 0.303958 1.02651 1.63344
          -0.14435 -0.3485 19.0273 -0.147941 -0.352239 19.0171
          -0.149781 -0.355191 19.0145 -0.151723 -0.358537 19.012
          -0.153547 -0.361784 19.0098 -0.155111 -0.364638 19.0079
          -0.156325 -0.366901 19.0064 -0.157096 -0.368344 19.0055
          -0.157558 -0.36923 19.005 -0.16582 -0.385269 18.9957
          -0.183493 -0.420496 18.9787 -0.200526 -0.453854 18.9645
          -0.208811 -0.469991 18.958 -0.21299 -0.478093 18.9549
          -0.215096 -0.482193 18.9534 -0.216149 -0.484226 18.9526
          -0.216667 -0.485243 18.9522 -0.21692 -0.485735 18.9521
          -0.217041 -0.485965 18.952 -0.2171 -0.486063 18.9519
          -0.217129 -0.486129 18.9519 -0.22998 -0.510926 18.9433
          -0.262544 -0.572196 18.9265 -0.352272 -0.72629 18.9098
          -0.529753 -0.995611 18.9196 -0.726914 -1.28278 18.9038
          -0.892554 -1.46088 18.5955 -1.12101 -1.42752 17.1434
          -1.15754 -1.15984 16.2292 -1.13741 -0.628874 15.2202
          -1.04721 -0.238266 14.5261 -0.902951 0.0489835 13.3319
          -0.893144 0.181801 12.1573 -0.888158 0.271525 11.2471
          -0.871922 0.330788 10.5042 -0.861098 0.375691 9.83278
          -0.858868 0.41492 9.19548 -0.862115 0.44936 8.61853
          -0.867002 0.478618 8.12718 -0.872218 0.505218 7.67061
          -0.877433 0.528408 7.25831 -0.882648 0.54776 6.91129
          -0.888224 0.564849 6.61478 -0.894325 0.580691 6.35434
          -0.900885 0.595451 6.12442 -0.907904 0.609719 5.91515
          -0.915186 0.623495 5.71934 -0.922434 0.636418 5.53992
          -0.929388 0.648325 5.37756 -0.935817 0.65905 5.23357
          -0.941721 0.668726 5.10598 -0.947067 0.677418 4.99282
          -0.951954 0.685258 4.89146 -0.956415 0.692342 4.80126
          -0.960482 0.698738 4.72025 -0.964156 0.704511 4.64743
          -0.967469 0.709726 4.58216 -0.970454 0.714417 4.52378
          -0.97311 0.718615 4.47162 -0.975505 0.722354 4.42538
          -0.977637 0.7257 4.38405 -0.979539 0.728619 4.34764
          -0.981179 0.73121 4.31582 -0.982622 0.733474 4.28794
          -0.983836 0.735409 4.26433 -0.984886 0.737049 4.24399
          -0.985738 0.738361 4.22759 -0.986427 0.739443 4.2148
          -0.986919 0.74023 4.20496 -0.987247 0.740722 4.19873
          -0.987378 0.740985 4.19578 -1.01004 0.776802 3.75822
          -0.943722 0.872218 2.23565 -0.560224 0.863362 1.75185
          -0.41925 0.835974 1.58687 -0.268622 0.783822 1.2159
          0.26672 -0.26672 19.0273 0.267517 -0.269698 19.0222
          0.268711 -0.271413 19.0208 0.270088 -0.273217 19.0195
          0.271456 -0.274923 19.0184 0.272693 -0.276415 19.0174
          0.273703 -0.277609 19.0167 0.274424 -0.278456 19.0162
          0.274808 -0.278898 19.0159 0.280007 -0.284737 19.0125
          0.299959 -0.30548 19.0022 0.323588 -0.329345 18.9934
          0.33397 -0.339972 18.9902 0.339382 -0.345515 18.9886
          0.34217 -0.348402 18.9878 0.34358 -0.349878 18.9874
          0.344302 -0.350599 18.9872 0.34463 -0.35096 18.9871
          0.344794 -0.351124 18.9871 0.344892 -0.351222 18.9871
          0.344925 -0.351255 18.9871 0.366278 -0.373494 18.9816
          0.433288 -0.444571 18.9687 0.638354 -0.67427 18.9623
          0.933521 -1.02677 18.9591 1.04688 -1.12638 18.9132
          1.22882 -1.30708 18.3989 1.07548 -1.42142 17.0639
          0.821935 -1.39662 16.196 0.221603 -1.22754 15.1424
          -0.0567702 -1.07125 14.6413 -0.24849 -0.89626 13.8108
          -0.375166 -0.827938 12.5362 -0.455559 -0.814424 11.6187
          -0.515386 -0.787922 10.886 -0.557567 -0.764404 10.2579
          -0.592204 -0.749185 9.6842 -0.624643 -0.741018 9.13579
          -0.654163 -0.737541 8.64313 -0.679616 -0.73613 8.21673
          -0.701822 -0.73531 7.84018 -0.721338 -0.734753 7.50497
          -0.738754 -0.734622 7.20616 -0.754564 -0.735048 6.93818
          -0.76916 -0.736098 6.69809 -0.782739 -0.737705 6.48194
          -0.795498 -0.739804 6.2871 -0.807503 -0.742264 6.11031
          -0.818885 -0.744986 5.94926 -0.829578 -0.747873 5.80232
          -0.83968 -0.750792 5.66751 -0.849159 -0.753744 5.54386
          -0.858081 -0.756598 5.42938 -0.866478 -0.759386 5.3241
          -0.874186 -0.761977 5.22766 -0.881172 -0.764371 5.14107
          -0.887502 -0.766569 5.06366 -0.89321 -0.768537 4.9938
          -0.898359 -0.770341 4.93115 -0.903017 -0.771981 4.87474
          -0.907215 -0.773457 4.82423 -0.910987 -0.774769 4.77896
          -0.914366 -0.775982 4.73829 -0.917383 -0.777032 4.70221
          -0.920073 -0.777983 4.67039 -0.922467 -0.778803 4.64186
          -0.924599 -0.779558 4.61693 -0.926436 -0.780214 4.59528
          -0.92801 -0.780771 4.57659 -0.929355 -0.78123 4.56084
          -0.93047 -0.781624 4.54772 -0.931356 -0.781919 4.53755
          -0.932012 -0.782149 4.52968 -0.932438 -0.782313 4.52476
          -0.932668 -0.782378 4.52214 -0.951003 -0.788742 4.31025
          -1.05996 -0.817442 3.11863 -1.09276 -0.640682 2.15398
          -0.988166 -0.272899 1.74496 -0.957006 -0.102352 1.53537
          -0.942475 0.0296581 1.11815
        </DataArray>
      </Points>
      <Verts>
        <DataArray type="Int32" Name="connectivity" format="ascii">
        </DataArray>
        <DataArray type="Int32" Name="offsets" format="ascii">
        </DataArray>
      </Verts>
      <Lines>
        <DataArray type="Int32" Name="connectivity" format="ascii">
          0 1 2 3 4 5
          6 7 8 9 10 11
          12 13 14 15 16 17
          18 19 20 21 22 23
          24 25 26 27 28 29
          30 31 32 33 34 35
          36 37 38 39 40 41
          42 43 44 45 46 47
          48 49 50 51 52 53
          54 55 56 57 58 59
          60 61 62 63 64 65
          66 67 68 69 70 71
          72 73 74 75 76 77
          78 79 80 81 82 83
          84 85 86 87 88 89
          90 91 92 93 94 95
          96 97 98 99 100 101
          102 103 104 105 106 107
          108 109 110 111 112 113
          114 115 116 117 118 119
          120 121 122 123 124 125
          126 127 128 129 130 131
          132 133 134 135 136 137
          138 139 140 141 142 143
          144 145 146 147 148 149
          150 151 152 153 154 155
          156 157 158 159 160 161
          162 163 164 165 166 167
          168 169 170 171 172 173
          174 175 176 177 178 179
          180 181 182 183 184 185
          186 187 188 189 190 191
          192 193 194 195 196 197
          198 199 200 201 202 203
          204 205 206 207 208 209
          210 211 212 213 214 215
          216 217 218 219 220 221
          222 223 224 225 226 227
          228 229 230 231 232 233
          234 235 236 237 238 239
          240 241 242 243 244 245
          246 247 248 249 250 251
          252 253 254 255 256 257
          258 259 260 261 262 263
          264 265 266 267 268 269
          270 271 272 273 274 275
          276 277 278 279 280 281
          282 283 284 285 286 287
          288 289 290 291 292 293
          294 295 296 297 298 299
          300 301 302 303 304 305
          306 307 308 309 310 311
          312 313 314 315 316 317
          318 319 320 321 322 323
          324 325 326 327 328 329
          330 331 332 333 334 335
          336 337 338 339 340 341
          342 343 344 345 346 347
          348 349 350 351 352 353
          354 355 356 357 358 359
          360 361 362 363 364 365
          366 367 368 369 370 371
          372 373 374 375 376 377
          378 379 380 381 382 383
          384 385 386 387 388 389
          390 391 392 393 394 395
          396 397 398 399 400 401
          402 403 404 405 406 407
          408 409 410 411 412 413
          414 415 416 417 418 419
          420 421 422 423 424 425
          426 427 428 429 430 431
          432 433 434 435 436 437
          438 439 440 441 442 443
          444 445 446 447 448 449
          450 451 452 453 454 455
          456 457 458 459 460 461
          462 463 464 465 466 467
          468 469 470 471 472 473
          474 475 476 477 478 479
          480 481 482 483 484 485
          486 487 488 489 490 491
          492 493 494 495 496 497
          498 499 500 501 502 503
          504 505 506 507 508 509
          510 511 512 513 514 515
          516 517 518 519 520 521
          522 523 524 525 526 527
          528 529 530 531 532 533
          534 535 536 537 538 539
          540 541 542 543 544 545
          546 547 548 549 550 551
          552 553 554 555 556 557
          558 559 560 561 562 563
          564 565 566 567 568 569
          570 571 572 573 574 575
          576 577 578 579 580 581
          582 583 584 585 586 587
          588
        </DataArray>
        <DataArray type="Int32" Name="offsets" format="ascii">
          29 109 261 432 508 589
        </DataArray>
      </Lines>
      <Strips>
        <DataArray type="Int32" Name="connectivity" format="ascii">
        </DataArray>
        <DataArray type="Int32" Name="offsets" format="ascii">
        </DataArray>
      </Strips>
      <Polys>
        <DataArray type="Int32" Name="connectivity" format="ascii">
        </DataArray>
        <DataArray type="Int32" Name="offsets" format="ascii">
        </DataArray>
      </Polys>
    </Piece>
  </PolyData>
</VTKFile>
