# vtk DataFile Version 3.0
vtk output
ASCII
DATASET UNSTRUCTURED_GRID
POINTS 20 float
6.053 7.83 0 6.085 7.579 0 6.336 7.611 0 
5.801 7.798 0 5.833 7.547 0 6.572 8.02 0 
6.37 8.161 0 6.563 7.765 0 6.304 7.862 0 
6.127 8.082 0 6.053 7.83 1 6.085 7.579 1 
6.336 7.611 1 5.801 7.798 1 5.833 7.547 1 
6.572 8.02 1 6.37 8.161 1 6.563 7.765 1 
6.304 7.862 1 6.127 8.082 1 
CELLS 5 39
6 7 5 8 17 15 18 
6 5 6 8 15 16 18 
6 6 9 8 16 19 18 
8 0 1 2 8 10 11 12 18 
8 3 4 1 0 13 14 11 10 

CELL_TYPES 5
13
13
13
12
12

CELL_DATA 5
POINT_DATA 20
FIELD FieldData 5
total-pressure 1 20 float
2 2.1 2.2 2.3 2.4 2.5 2.6 2.7 2.8 
2.9 2 2.1 2.2 2.3 2.4 2.5 2.6 2.7 
2.8 2.9 
density 1 20 float
1.225 1.225 1.225 1.225 1.225 1.225 1.225 1.225 1.225 
1.225 1.225 1.225 1.225 1.225 1.225 1.225 1.225 1.225 
1.225 1.225 
velocity-magnitude 1 20 float
5.924 5.109 4.797 6.065 5.323 5.677 6.264 4.952 5.645 
6.287 5.924 5.109 4.797 6.065 5.323 5.677 6.264 4.952 
5.645 6.287 
velocity 3 20 float
-3.825 -4.519 0 -2.82 -4.25 0 -2.66 -3.981 0 
-3.874 -4.662 0 -2.975 -4.406 0 -4.018 -4.003 0 
-4.538 -4.311 0 -3.085 -3.864 0 -3.707 -4.25 0 
-4.362 -4.524 0 -3.825 -4.519 0 -2.82 -4.25 0 
-2.66 -3.981 0 -3.874 -4.662 0 -2.975 -4.406 0 
-4.018 -4.003 0 -4.538 -4.311 0 -3.085 -3.864 0 
-3.707 -4.25 0 -4.362 -4.524 0 
coordinate 3 20 float
1.86 4.783 0 1.86 4.757 0 1.863 4.761 0 
1.858 4.779 0 1.858 4.754 0 1.865 4.802 0 
1.863 4.816 0 1.865 4.776 0 1.863 4.786 0 
1.861 4.808 0 1.86 4.783 0 1.86 4.757 0 
1.863 4.761 0 1.858 4.779 0 1.858 4.754 0 
1.865 4.802 0 1.863 4.816 0 1.865 4.776 0 
1.863 4.786 0 1.861 4.808 0 
