# vtk DataFile Version 3.0
vtk output
ASCII
DATASET POLYDATA
POINTS 20 float
1 1.5 0 1 1.5 1 0 1.5 0 
0 1.5 1 2 1.5 0 2 1.5 1 
3 1.5 0 3 1.5 1 1 1.5 2 
0 1.5 2 2 1.5 2 3 1.5 2 
1 1.5 3 0 1.5 3 2 1.5 3 
3 1.5 3 1 1.5 4 0 1.5 4 
2 1.5 4 3 1.5 4 
POLYGONS 24 96
3 0 1 2 
3 2 1 3 
3 4 5 0 
3 0 5 1 
3 6 7 4 
3 4 7 5 
3 1 8 3 
3 3 8 9 
3 5 10 1 
3 1 10 8 
3 7 11 5 
3 5 11 10 
3 8 12 9 
3 9 12 13 
3 10 14 8 
3 8 14 12 
3 11 15 10 
3 10 15 14 
3 12 16 13 
3 13 16 17 
3 14 18 12 
3 12 18 16 
3 15 19 14 
3 14 19 18 

CELL_DATA 24
POINT_DATA 20
FIELD FieldData 4
first-scalar 1 20 float
0 1 0 0 0 1 0 0 1 
0 1 0 1 0 1 0 0 0 
0 0 
200_to_1000 1 20 float
200 450 600 1000 550 400 1000 950 700 
200 400 1000 200 200 300 1000 400 250 
200 1000 
steve's_vector 3 20 float
0 0 1 0 0 2 0 0 0 
0 0 0 0 0 1 0 0 2 
0 0 0 0 0 0 0 0 3 
0 0 0 0 0 3 0 0 0 
0 0 4 0 0 0 0 0 4 
0 0 0 0 0 5 0 0 0 
0 0 5 0 0 0 
fourth_param_is_a_scalar 1 20 float
0.25 0.25 0.25 0.25 0.25 0.25 0.25 0.25 0.25 
0.25 0.25 0.25 0.25 0.25 0.25 0.25 0.25 0.25 
0.25 0.25 
