# vtk DataFile Version 3.0
vtk output
ASCII
DATASET UNSTRUCTURED_GRID
POINTS 64 float
0 0 0 0 0.333333 0 0 0.666667 0 
0 1 0 0.333333 0 0 0.333333 0.333333 0 
0.333333 0.666667 0 0.333333 1 0 0.666667 0 0 
0.666667 0.333333 0 0.666667 0.666667 0 0.666667 1 0 
1 0 0 1 0.333333 0 1 0.666667 0 
1 1 0 0 0 0.333333 0 0.333333 0.333333 
0 0.666667 0.333333 0 1 0.333333 0.333333 0 0.333333 
0.333333 0.333333 0.333333 0.333333 0.666667 0.333333 0.333333 1 0.333333 
0.666667 0 0.333333 0.666667 0.333333 0.333333 0.666667 0.666667 0.333333 
0.666667 1 0.333333 1 0 0.333333 1 0.333333 0.333333 
1 0.666667 0.333333 1 1 0.333333 0 0 0.666667 
0 0.333333 0.666667 0 0.666667 0.666667 0 1 0.666667 
0.333333 0 0.666667 0.333333 0.333333 0.666667 0.333333 0.666667 0.666667 
0.333333 1 0.666667 0.666667 0 0.666667 0.666667 0.333333 0.666667 
0.666667 0.666667 0.666667 0.666667 1 0.666667 1 0 0.666667 
1 0.333333 0.666667 1 0.666667 0.666667 1 1 0.666667 
0 0 1 0 0.333333 1 0 0.666667 1 
0 1 1 0.333333 0 1 0.333333 0.333333 1 
0.333333 0.666667 1 0.333333 1 1 0.666667 0 1 
0.666667 0.333333 1 0.666667 0.666667 1 0.666667 1 1 
1 0 1 1 0.333333 1 1 0.666667 1 
1 1 1 
CELLS 27 243
8 0 4 5 1 16 20 21 17 
8 1 5 6 2 17 21 22 18 
8 2 6 7 3 18 22 23 19 
8 4 8 9 5 20 24 25 21 
8 5 9 10 6 21 25 26 22 
8 6 10 11 7 22 26 27 23 
8 8 12 13 9 24 28 29 25 
8 9 13 14 10 25 29 30 26 
8 10 14 15 11 26 30 31 27 
8 16 20 21 17 32 36 37 33 
8 17 21 22 18 33 37 38 34 
8 18 22 23 19 34 38 39 35 
8 20 24 25 21 36 40 41 37 
8 21 25 26 22 37 41 42 38 
8 22 26 27 23 38 42 43 39 
8 24 28 29 25 40 44 45 41 
8 25 29 30 26 41 45 46 42 
8 26 30 31 27 42 46 47 43 
8 32 36 37 33 48 52 53 49 
8 33 37 38 34 49 53 54 50 
8 34 38 39 35 50 54 55 51 
8 36 40 41 37 52 56 57 53 
8 37 41 42 38 53 57 58 54 
8 38 42 43 39 54 58 59 55 
8 40 44 45 41 56 60 61 57 
8 41 45 46 42 57 61 62 58 
8 42 46 47 43 58 62 63 59 

CELL_TYPES 27
12
12
12
12
12
12
12
12
12
12
12
12
12
12
12
12
12
12
12
12
12
12
12
12
12
12
12

CELL_DATA 27
POINT_DATA 64
VECTORS vectors float
0 0 200 0 0 0 0 0 0 
0 0 0 0 0 0 8.6357e-06 8.61283e-06 -0.500049 
9.63808e-06 -6.89135e-06 -0.500049 0 0 0 0 0 0 
-6.85115e-06 9.61321e-06 -0.500049 -6.12105e-06 -6.15924e-06 -0.50005 0 0 0 
0 0 0 0 0 0 0 0 0 
0 0 0 0 0 0 0 0 0 
0 0 0 0 0 0 0 0 0 
1.33783e-05 1.33907e-05 -0.500053 1.35218e-05 -1.27296e-05 -0.500053 0 0 0 
0 0 0 -1.27379e-05 1.35323e-05 -0.500053 -1.26252e-05 -1.26151e-05 -0.500053 
0 0 0 0 0 0 0 0 0 
0 0 0 0 0 0 0 0 0 
0 0 0 0 0 0 0 0 0 
0 0 0 1.73204e-05 1.73301e-05 -0.500032 1.73699e-05 -1.702e-05 -0.500032 
0 0 0 0 0 0 -1.7029e-05 1.738e-05 -0.500032 
-1.69844e-05 -1.69757e-05 -0.500032 0 0 0 0 0 0 
0 0 0 0 0 0 0 0 0 
0 0 0 0 0 0 0 0 0 
0 0 0 0 0 0 0 0 -0.5 
0 0 -0.5 0 0 0 0 0 0 
0 0 -0.5 0 0 -0.5 0 0 0 
0 0 0 0 0 0 0 0 0 
0 0 0 
FIELD FieldData 3
scalars 1 64 float
0 0 0 0 0 200 0.500049 0 0 
0.500049 0.50005 0 0 0 0 0 0 0 
0 0 0 0.500053 0.500053 0 0 0.500053 0.500053 
0 0 0 0 0 0 0 0 0 
0 0.500032 0.500032 0 0 0.500032 0.500032 0 0 
0 0 0 0 0 0 0 0 0.5 
0.5 0 0 0.5 0.5 0 0 0 3.69564 
0 
Pressure 1 64 float
0 1 1 1 1 1 1 1 1 
1 1 1 1 1 1 1 1 1 
1 1 1 1 1 1 1 1 1 
1 1 1 1 1 1 1 1 1 
1 1 1 1 1 1 1 1 1 
1 1 1 1 1 1 1 1 1 
1 1 1 1 1 1 1 1 100016 
1 
TurbulentEnergy 1 64 float
0 .726117 0 0 0 0 0 0 0 
0 0 0 0 0 0 0 0 0 
0 0 0 0 0 0 0 0 0 
0 0 0 0 0 0 0 0 0 
0 0 0 0 0 0 0 0 0 
0 0 0 0 0 0 0 0 0 
0 0 0 0 0 0 0 0 0 
0 
