# vtk DataFile Version 3.0
vtk output
ASCII
DATASET POLYDATA
POINTS 19 float
0.681818 0 0 0.681818 0 1 0.681818 1 0 
0.681818 2 0 0.681818 2 0.998333 0.681818 3 0 
0.681818 3 1 0.681818 0 2 0.681818 1 1.99833 
0.681818 2 1.99999 0.681818 3 2 0.681818 0 3 
0.681818 1 3 0.681818 2 3 0.681818 3 3 
0.681818 0 4 0.681818 1 4 0.681818 2 4 
0.681818 3 4 
POLYGONS 22 88
3 0 1 2 
3 2 4 3 
3 3 4 5 
3 4 6 5 
3 1 7 2 
3 7 8 2 
3 2 8 4 
3 8 9 4 
3 4 9 6 
3 9 10 6 
3 7 11 8 
3 11 12 8 
3 8 12 9 
3 12 13 9 
3 9 13 10 
3 13 14 10 
3 11 15 12 
3 15 16 12 
3 12 16 13 
3 16 17 13 
3 13 17 14 
3 17 18 14 

CELL_DATA 22
POINT_DATA 19
SCALARS scalars float
LOOKUP_TABLE default
0 0 0 0 0.681818 0 0 0 0.681818 
0.681818 0 0 0.681818 0.681818 0 0 0 0 
0 
VECTORS vectors float
0 0 1 0 0 1 0 0 1 
0 0 1 0 0 1.68182 0 0 1 
0 0 1 0 0 1 0 0 1.68182 
0 0 1.68182 0 0 1 0 0 1 
0 0 1.68182 0 0 1.68182 0 0 1 
0 0 1 0 0 1 0 0 1 
0 0 1 
