# vtk DataFile Version 3.0
vtk output
ASCII
DATASET POLYDATA
POINTS 19 float
1.22727 0 0 1.22727 0 1 1.22727 1 0 
1.22727 2 0 1.22727 2 0.998333 1.22727 3 0 
1.22727 3 1 1.22727 0 2 1.22727 1 1.99833 
1.22727 2 1.99999 1.22727 3 2 1.22727 0 3 
1.22727 1 3 1.22727 2 3 1.22727 3 3 
1.22727 0 4 1.22727 1 4 1.22727 2 4 
1.22727 3 4 
POLYGONS 22 88
3 0 1 2 
3 2 4 3 
3 3 4 5 
3 4 6 5 
3 1 7 2 
3 7 8 2 
3 2 8 4 
3 8 9 4 
3 4 9 6 
3 9 10 6 
3 7 11 8 
3 11 12 8 
3 8 12 9 
3 12 13 9 
3 9 13 10 
3 13 14 10 
3 11 15 12 
3 15 16 12 
3 12 16 13 
3 16 17 13 
3 13 17 14 
3 17 18 14 

CELL_DATA 22
POINT_DATA 19
SCALARS scalars float
LOOKUP_TABLE default
0 0 0 0 1 0 0 0 1 
1 0 0 1 1 0 0 0 0 
0 
VECTORS vectors float
0 0 1 0 0 1 0 0 1 
0 0 1 0 0 2 0 0 1 
0 0 1 0 0 1 0 0 2 
0 0 2 0 0 1 0 0 1 
0 0 2 0 0 2 0 0 1 
0 0 1 0 0 1 0 0 1 
0 0 1 
