# vtk DataFile Version 3.0
vtk output
ASCII
DATASET POLYDATA
POINTS 19 float
1 0.954545 0 0 0.954545 0 0 0.954545 1 
2 0.954545 0 2.002 0.954545 1 3 0.954545 0 
3 0.954545 1 1 0.954545 1.99833 0 0.954545 2 
2 0.954545 1.99833 3 0.954545 2 1 0.954545 3 
0 0.954545 3 2 0.954545 2.99999 3 0.954545 3 
1 0.954545 4 0 0.954545 4 2 0.954545 4 
3 0.954545 4 
POLYGONS 22 88
3 1 0 2 
3 3 4 0 
3 5 6 3 
3 3 6 4 
3 0 7 2 
3 2 7 8 
3 4 9 0 
3 0 9 7 
3 6 10 4 
3 4 10 9 
3 7 11 8 
3 8 11 12 
3 9 13 7 
3 7 13 11 
3 10 14 9 
3 9 14 13 
3 11 15 12 
3 12 15 16 
3 13 17 11 
3 11 17 15 
3 14 18 13 
3 13 18 17 

CELL_DATA 22
POINT_DATA 19
SCALARS scalars float
LOOKUP_TABLE default
0 0 0 0 0.954545 0 0 0.954545 0 
0.954545 0 0.954545 0 0.954545 0 0 0 0 
0 
VECTORS vectors float
0 0 1 0 0 1 0 0 1 
0 0 1 0 0 1.95455 0 0 1 
0 0 1 0 0 1.95455 0 0 1 
0 0 1.95455 0 0 1 0 0 1.95455 
0 0 1 0 0 1.95455 0 0 1 
0 0 1 0 0 1 0 0 1 
0 0 1 
