# vtk DataFile Version 3.0
vtk output
ASCII
DATASET POLYDATA
POINTS 15 float
1 0 1.81818 0 0 1.81818 0 1 1.81818 
2 0 1.81818 2.002 1 1.81818 3 0 1.81818 
3 1 1.81818 1 1.99833 1.81818 0 2 1.81818 
2 1.99833 1.81818 3 2 1.81818 1 3 1.81818 
0 3 1.81818 2 3 1.81818 3 3 1.81818 

POLYGONS 16 64
3 0 1 2 
3 3 0 4 
3 5 3 6 
3 6 3 4 
3 0 2 7 
3 7 2 8 
3 4 0 9 
3 9 0 7 
3 6 4 10 
3 10 4 9 
3 7 8 11 
3 11 8 12 
3 9 7 13 
3 13 7 11 
3 10 9 14 
3 14 9 13 

CELL_DATA 16
POINT_DATA 15
SCALARS scalars float
LOOKUP_TABLE default
0 0 0 0 1 0 0 1 0 
1 0 0 0 0 0 
VECTORS vectors float
0 0 1 0 0 1 0 0 1 
0 0 1 0 0 2 0 0 1 
0 0 1 0 0 2 0 0 1 
0 0 2 0 0 1 0 0 1 
0 0 1 0 0 1 0 0 1 

