# vtk DataFile Version 3.0
vtk output
ASCII
DATASET POLYDATA
POINTS 10658 float
-2.09202 -2.38444 0.233256 -2.30108 -1.65659 0.538826 -2.31199 -2.55932 0.514131 
-2.63557 -2.25167 0.150379 -2.24512 -1.76432 0.523147 -2.20153 -2.60124 0.820397 
-2.60972 -2.24557 0.903555 -1.99046 -1.64014 0.83609 -2.896 -2.16294 0.894169 
-2.0697 -1.77238 0.892452 -2.01143 -2.65778 0.866203 -2.06594 -1.65965 0.893754 
-2.0931 -2.69774 0.891267 -2.08975 -2.31966 0.826141 -2.20108 -1.74628 0.567784 
-1.96391 -2.60428 0.8099 -2.29059 -2.7529 0.975121 -2.74715 -2.13662 0.782512 
-2.08024 -1.77856 0.868794 -2.05543 -2.19662 0.216704 -2.77499 -1.81464 0.880845 
-2.15373 -1.6667 0.777315 -2.26801 -2.3842 0.809249 -2.66489 -1.9967 0.868705 
-2.16459 -1.73887 0.637632 -2.11278 -2.47396 0.926813 -2.30481 -2.47269 0.535317 
-2.00889 -1.87971 0.834447 -1.98365 -1.77361 0.893532 -2.53363 -2.15811 0.794977 
-2.16592 -2.44121 0.86789 -2.11624 -2.47521 0.871296 -2.29902 -1.74539 0.659617 
-2.78507 -2.13314 0.849103 -2.23285 -2.44559 0.769143 -2.66977 -2.71486 0.478792 
-2.29988 -2.42043 0.624279 -2.6773 -2.11744 0.763384 -2.01951 -2.35199 0.188471 
-2.07529 -2.17387 0.820737 -2.06858 -1.93766 0.676732 -2.08046 -2.66973 0.895501 
-2.08619 -2.39339 0.874671 -2.5349 -1.6957 0.925303 -2.08531 -1.79006 0.852849 
-2.45598 -2.42003 0.538544 -2.19668 -2.09184 0.848363 -2.03546 -2.42949 0.85695 
-2.33352 -1.70691 0.792446 -1.91609 -1.79318 0.84971 -2.26541 -2.3469 0.699546 
-1.92137 -1.9961 0.720065 -2.77743 -2.37815 0.986758 -2.92817 -2.25182 0.842352 
-2.17785 -1.73037 0.917131 -1.83671 -2.15336 0.646974 -2.73633 -1.39394 0.491154 
-2.17705 -1.87725 0.623509 -1.87627 -2.19678 0.756736 -2.06097 -1.80171 0.869667 
-2.64922 -2.13675 0.820841 -3.12208 -2.18198 0.669847 -2.10609 -1.73115 0.820663 
-2.06553 -2.29783 0.874123 -2.19173 -2.14648 0.73034 -2.55545 -2.2397 0.811825 
-2.17772 -2.18698 0.878624 -2.11438 -1.85075 0.822173 -2.62801 -2.13733 0.829013 
-2.02204 -2.11017 0.511363 -2.80269 -1.73579 0.569782 -2.20826 -2.33138 0.920684 
-2.71692 -2.18917 0.899277 -2.16611 -1.86462 0.915295 -2.01967 -2.27243 0.847401 
-2.66047 -2.25629 0.865211 -2.75104 -1.88649 0.821848 -2.50966 -2.36 0.525057 
-2.16578 -2.54008 0.471198 -1.8661 -2.14028 0.605876 -2.03238 -2.55693 0.87436 
-2.23551 -2.41775 0.791853 -2.82075 -2.25484 0.87365 -1.80715 -2.27948 0.706386 
-2.85783 -2.30239 0.837496 -2.44435 -1.77695 0.922712 -2.94182 -1.86488 0.623716 
-2.41391 -1.96272 0.560529 -2.10296 -1.90326 0.838118 -2.11693 -1.76338 0.770535 
-2.14046 -2.38701 0.678375 -2.31172 -1.78142 0.409269 -2.27635 -2.42047 0.244818 
-2.47484 -2.20814 0.766952 -2.04774 -2.50037 0.815659 -2.22784 -2.43014 0.436036 
-2.70534 -1.67077 0.729363 -2.10413 -2.42648 0.709509 -2.21988 -2.40344 0.369548 
-2.34167 -2.38069 0.437428 -2.2026 -2.49309 0.702344 -2.2864 -2.38692 0.389683 
-2.25332 -2.405 0.520823 -2.20133 -1.80917 0.378949 -2.27973 -1.80843 0.191344 
-2.28478 -1.80912 0.323224 -2.14291 -2.43896 0.626159 -2.21953 -2.48534 0.743545 
-2.35036 -1.76657 0.339672 -2.30182 -1.77294 0.263383 -2.49233 -1.93509 0.353396 
-2.14671 -2.10686 0.258912 -2.012 -2.07436 0.152081 -2.18057 -1.77102 0.260349 
-2.30292 -1.77738 0.305503 -2.12759 -1.77394 0.692854 -2.24569 -2.2454 0.59159 
-1.94002 -2.2299 0.299122 -2.21509 -1.74204 0.713063 -2.3025 -2.50854 0.61769 
-1.93473 -1.96404 0.734796 -2.42473 -1.77345 0.440241 -2.27946 -1.85084 0.503161 
-2.24074 -1.84859 0.63254 -2.24892 -1.77345 0.26975 -2.15535 -2.3404 0.262317 
-2.16545 -2.20026 0.210382 -1.95003 -2.10552 0.175665 -2.24995 -2.3796 0.279609 
-2.01969 -1.94743 0.731628 -2.17637 -1.77575 0.373842 -2.66644 -2.24104 0.922949 
-2.18521 -1.75057 0.575127 -2.25619 -2.38344 0.426576 -2.03342 -2.43273 0.42437 
-2.15318 -1.90223 0.755419 -2.2975 -1.79399 0.457074 -1.82675 -1.93864 0.509867 
-2.12426 -2.37516 0.331204 -2.07692 -2.30056 0.149713 -2.27844 -1.75026 0.614744 
-2.28503 -1.92504 0.675947 -2.03798 -2.04824 0.177116 -2.24684 -2.41967 0.377691 
-1.7816 -2.34489 0.451093 -1.90214 -2.07336 0.613427 -2.07449 -2.67183 0.746936 
-2.0658 -1.45629 0.361346 -1.96293 -1.92428 0.745944 -2.19096 -1.66235 0.473226 
-2.04385 -1.55953 0.806377 -2.08987 -1.53145 0.836875 -2.25087 -2.47974 0.56161 
-2.30937 -2.42007 0.366232 -2.21673 -1.90044 0.665628 -2.28038 -2.12481 0.961915 
-2.16564 -2.7673 0.740599 -1.88637 -2.24361 0.753731 -2.23825 -2.66354 0.860399 
-2.65415 -2.26555 0.93124 -1.9986 -2.53334 0.822603 -2.27441 -1.94069 0.831915 
-1.91981 -2.42623 0.352197 -2.26774 -2.47112 0.388602 -2.21972 -2.46987 0.559449 
-2.24991 -2.24301 0.646278 -2.13475 -2.56582 0.855662 -2.09408 -2.6364 0.893799 
-2.17439 -2.61955 0.758232 -2.09578 -1.73195 0.697769 -2.10648 -1.61045 0.796961 
-2.30728 -1.38278 0.821137 -2.34234 -1.95779 0.556799 -2.1171 -1.7922 0.761903 
-1.89824 -2.36647 0.427464 -2.40804 -2.35217 0.375529 -2.44793 -1.37396 0.683616 
-2.1703 -2.63702 0.825475 -2.35431 -2.53063 0.444371 -2.2 -1.75767 0.304037 
-2.227 -2.4944 0.459887 -2.27316 -2.55081 0.379364 -2.7024 -2.80764 0.685467 
-2.06242 -1.70664 0.819346 -2.26042 -2.53999 0.416642 -2.08791 -1.6073 0.830124 
-2.05786 -2.6904 0.763014 -1.95003 -1.68583 0.791128 -2.32769 -1.66737 0.307561 
-2.72441 -1.58994 0.82093 -2.27977 -2.79862 0.686458 -1.88674 -2.49624 0.592315 
-2.59098 -1.43173 0.530846 -2.01624 -1.67266 0.821404 -2.39215 -1.79693 0.282259 
-2.3413 -1.73604 0.358608 -1.91716 -1.67856 0.808183 -1.96506 -1.64951 0.837792 
-2.36153 -1.38874 0.689789 -2.23019 -2.5866 0.729214 -2.20791 -1.41801 0.633872 
-2.66392 -2.75998 0.501843 -2.32497 -2.55838 0.621421 -2.34295 -2.57113 0.801861 
-2.23272 -1.3885 0.493538 -2.09703 -1.63402 0.821241 -2.46662 -2.80369 0.465601 
-2.03904 -2.48735 0.845224 -2.10491 -1.82408 0.785384 -2.19378 -2.33257 0.245781 
-2.22415 -2.46791 0.456689 -2.06005 -2.38773 0.199753 -2.22201 -2.43708 0.222226 
-2.14397 -2.75487 0.727556 -2.19801 -2.36094 0.689582 -2.1245 -1.61987 0.80688 
-1.98662 -2.43297 0.811558 -2.51698 -1.44441 0.484966 -2.38697 -2.4334 0.354832 
-2.1315 -1.61556 0.777567 -2.18725 -1.72798 0.270904 -2.20546 -1.54364 0.932868 
-2.15244 -2.74114 0.796428 -2.05422 -2.37536 0.803283 -2.2126 -2.80174 0.600917 
-1.8245 -2.35116 0.582529 -2.08243 -1.6007 0.88425 -2.10221 -1.61192 0.87359 
-2.13684 -2.73574 0.756041 -2.07422 -1.51013 0.70757 -1.89357 -2.02625 0.667123 
-1.99155 -1.57243 0.865625 -2.12947 -2.68183 0.881777 -3.01498 -2.10434 0.585609 
-2.0633 -1.59141 0.867624 -2.2883 -1.69126 0.845639 -1.92315 -1.64351 0.739563 
-2.71099 -2.0144 0.234736 -1.96179 -1.90754 0.819464 -2.04559 -2.65908 0.838903 
-1.88388 -2.57137 0.456511 -2.08451 -1.84303 0.818946 -2.42031 -2.4665 0.921202 
-2.05909 -1.54429 0.894776 -2.29349 -2.5065 0.930011 -2.18817 -2.41708 0.273199 
-2.14217 -2.40534 0.223588 -2.40968 -1.79372 0.480066 -2.50769 -1.79626 0.694882 
-1.93111 -2.52775 0.790491 -2.1938 -1.78271 0.206341 -2.62246 -2.30935 0.950989 
-2.39029 -2.44824 0.966905 -2.26891 -1.62663 0.873427 -1.87308 -1.78997 0.536324 
-1.94552 -1.67456 0.817702 -2.0562 -2.63736 0.852227 -2.12256 -1.6171 0.751318 
-2.20581 -2.61225 0.895072 -2.63269 -2.23441 0.850169 -2.39714 -2.47092 0.887566 
-2.07895 -1.74472 0.851102 -3.05131 -2.07253 0.679308 -2.12518 -1.94366 0.161172 
-2.74959 -2.26325 0.828702 -2.14911 -2.48753 0.919618 -2.03058 -2.01395 0.254175 
-2.29356 -1.74673 0.87775 -2.30644 -2.75458 0.973182 -2.32356 -1.62516 0.612553 
-2.16919 -1.43919 0.895901 -2.17603 -2.63997 0.843285 -2.24285 -1.65367 0.600754 
-2.2669 -1.67139 0.667642 -2.10394 -2.70069 0.934527 -2.12094 -2.10432 0.16887 
-2.32203 -2.64082 0.964195 -2.29834 -2.59126 0.568287 -1.96318 -2.4669 0.831278 
-2.39777 -1.78367 0.389934 -2.43173 -2.46983 0.714854 -2.1741 -2.70096 0.905376 
-2.20065 -1.49196 0.910943 -2.18758 -1.757 0.388202 -2.71375 -2.10972 0.401216 
-2.43009 -2.42157 0.958895 -1.98846 -2.08043 0.160772 -2.09548 -2.05574 0.239696 
-2.09065 -1.83928 0.182313 -2.26547 -1.74385 0.346897 -2.16758 -2.6372 0.82167 
-2.04694 -1.68818 0.7618 -1.93335 -2.55343 0.786553 -1.96353 -2.38348 0.805725 
-2.39861 -2.43585 0.992339 -2.18145 -1.54612 0.823787 -2.10855 -2.58269 0.737253 
-2.23925 -1.81423 0.345491 -2.77812 -2.22138 0.882207 -2.16011 -1.66789 0.462581 
-1.87631 -1.73901 0.555096 -2.14524 -2.5451 0.941381 -2.14896 -1.69398 0.553408 
-1.91079 -1.65719 0.673549 -1.85399 -1.74999 0.642474 -2.26441 -1.58208 0.792046 
-2.0461 -1.72014 0.757862 -2.39495 -2.47003 0.511274 -2.372 -1.73394 0.74319 
-2.20225 -2.72152 0.905909 -2.20311 -1.62052 0.721294 -2.50229 -2.41094 0.762229 
-2.47163 -2.47519 0.561432 -1.96997 -1.63076 0.822692 -2.14451 -1.64163 0.864678 
-2.14027 -1.6007 0.711538 -2.00384 -2.21575 0.127343 -2.44218 -2.30502 0.858786 
-2.05858 -2.56061 0.810552 -2.37635 -2.51608 0.875382 -2.06711 -1.58875 0.807339 
-2.15737 -1.51524 0.839495 -2.34479 -2.55624 0.771867 -2.44173 -1.76497 0.967541 
-2.39495 -2.45257 0.91001 -2.01808 -1.64186 0.840383 -2.12319 -1.65034 0.709687 
-1.99568 -2.41712 0.815141 -2.36551 -2.48403 0.929123 -2.71749 -2.06882 0.302572 
-2.61271 -2.25406 0.792786 -2.04133 -2.62776 0.814534 -2.07443 -2.70986 0.919766 
-2.23268 -1.63887 0.627003 -2.37243 -1.66561 0.365196 -2.02074 -2.59001 0.851072 
-1.97846 -2.46429 0.817229 -2.26872 -1.44638 0.848111 -2.5901 -2.16577 0.678804 
-2.41084 -1.76798 0.159647 -2.7222 -2.05398 0.271556 -2.06929 -2.64073 0.918774 
-2.37938 -2.54988 0.490059 -2.40014 -1.77593 0.786331 -1.82517 -2.37324 0.66776 
-2.40516 -1.78441 0.933535 -2.16574 -1.6615 0.400905 -2.61256 -2.32317 0.869341 
-2.39215 -2.44434 0.910114 -2.15097 -1.52375 0.93463 -2.39086 -2.42065 0.465853 
-2.1354 -2.61414 0.691137 -2.64382 -1.95792 0.155102 -2.46918 -1.77937 0.868912 
-2.42313 -2.43728 0.856239 -2.3818 -1.65532 0.775346 -2.69191 -2.14115 0.457873 
-2.09079 -2.56111 0.660091 -2.59677 -2.23312 0.757654 -2.45645 -2.41585 0.351072 
-2.7259 -2.03052 0.247631 -2.54934 -1.78517 0.555362 -2.07535 -1.62411 0.755819 
-2.22951 -2.38433 0.315511 -2.4845 -1.81522 0.629327 -2.47701 -1.80745 0.680537 
[...]
CELL_DATA 10658
POINT_DATA 10658
SCALARS drop_size float
LOOKUP_TABLE default
8.76537e-07 1.45921e-06 3.4703e-06 3.56077e-06 2.79372e-06 1.10264e-06 9.66432e-07 4.61758e-07 1.1078e-06 
1.33004e-07 3.37596e-06 2.35414e-06 1.3071e-07 2.9576e-06 2.22869e-06 2.08073e-06 1.22866e-06 3.66744e-06 
3.71834e-06 5.37182e-08 1.12687e-06 2.95589e-07 2.76921e-06 2.14353e-06 2.94872e-07 1.54308e-06 2.83411e-08 
2.25062e-06 2.68562e-06 2.51199e-06 2.21507e-06 2.44762e-06 3.09352e-06 2.94584e-06 3.14757e-06 2.81825e-07 
2.68204e-07 1.83714e-06 2.70928e-06 2.0608e-06 7.4406e-07 4.44825e-06 5.48651e-08 4.64496e-06 3.35632e-06 
4.52252e-06 2.32762e-06 2.40963e-06 2.62024e-06 9.42345e-07 1.83112e-06 1.58337e-06 4.00967e-06 2.3322e-06 
2.64949e-06 5.47218e-08 2.30683e-06 2.85553e-07 2.19314e-07 1.68774e-06 2.04689e-06 3.96852e-06 8.98043e-07 
2.74024e-06 2.07428e-06 6.33949e-07 2.13808e-06 1.02263e-06 3.17137e-06 2.83411e-08 1.58638e-06 2.17134e-06 
1.9114e-06 2.83402e-07 1.06808e-06 6.54452e-07 3.97325e-06 3.14011e-06 1.95972e-06 1.09204e-07 1.44501e-06 
1.49519e-06 4.04064e-06 2.26913e-07 1.83671e-06 1.83771e-06 2.64791e-06 2.41107e-07 1.51212e-07 5.20971e-07 
4.07706e-07 5.83061e-08 2.4039e-07 1.59241e-07 3.0429e-06 7.16245e-07 5.07924e-07 2.6764e-08 3.08922e-07 
1.46624e-07 3.85206e-08 5.97398e-08 4.84134e-08 6.53314e-08 2.62326e-07 2.72649e-07 2.0469e-07 1.23554e-06 
3.32722e-07 2.40247e-07 6.03133e-08 5.74459e-08 3.8362e-07 2.31214e-07 5.22844e-08 5.57254e-08 1.67556e-07 
3.0204e-07 2.42971e-07 1.13505e-07 1.02808e-06 2.95732e-07 1.23111e-07 3.7258e-07 1.34437e-07 6.17471e-08 
3.26701e-07 2.57882e-07 4.92727e-07 3.16378e-07 2.21895e-07 1.19526e-07 2.62183e-07 5.57254e-08 2.9058e-08 
2.04117e-07 2.96315e-08 3.5223e-08 1.76732e-07 3.07202e-07 2.24762e-07 1.62395e-07 3.3731e-07 5.3288e-08 
2.10291e-08 3.09218e-08 9.974e-07 2.08131e-07 2.37953e-07 3.47589e-06 2.68921e-07 3.18242e-07 9.11385e-08 
3.46495e-08 2.49853e-07 9.81342e-07 3.89507e-08 7.50368e-07 1.93937e-07 2.32935e-07 6.19469e-07 6.34675e-08 
1.35441e-07 1.97808e-07 6.6335e-08 5.91663e-08 3.30428e-07 3.34156e-07 1.08487e-07 1.32644e-06 4.74097e-08 
2.14583e-07 2.86269e-07 2.66341e-07 1.40889e-07 5.51519e-08 3.8664e-08 2.79961e-07 5.71165e-06 2.6591e-07 
6.70519e-08 2.36977e-06 1.75585e-07 1.72144e-07 3.66443e-06 4.49715e-07 1.62825e-07 1.29849e-07 4.10114e-06 
4.88569e-07 2.40399e-08 1.75442e-07 1.36301e-07 5.77326e-08 3.32158e-08 1.41176e-07 1.62395e-07 3.80179e-07 
2.69065e-07 3.74156e-06 1.67126e-07 6.42408e-07 3.71532e-06 6.26207e-07 2.02396e-07 4.76669e-07 1.37305e-07 
2.7695e-07 3.50931e-07 5.71591e-08 1.54509e-07 2.05264e-07 2.62326e-07 8.13892e-08 3.53368e-07 5.07073e-08 
3.47929e-08 1.82037e-07 5.80194e-08 1.03238e-06 7.19265e-08 4.63765e-07 4.81266e-08 9.67301e-08 2.80248e-07 
1.81034e-07 4.21049e-08 1.2701e-06 2.5272e-07 4.18746e-07 5.54807e-07 2.30927e-07 4.07563e-07 6.85277e-07 
3.60833e-08 2.53708e-06 2.39386e-07 3.09194e-06 5.47218e-08 4.51158e-08 4.43989e-08 4.55459e-08 3.15431e-06 
2.52003e-07 5.21411e-08 3.20679e-07 1.85765e-07 1.98525e-07 3.49023e-06 1.11498e-07 1.97808e-07 2.1788e-07 
1.48243e-06 2.73236e-06 3.12086e-08 1.84905e-07 2.03122e-08 5.34314e-08 3.49497e-07 1.34336e-06 3.2042e-06 
7.13531e-08 2.20891e-07 6.1359e-07 1.40429e-06 2.23185e-07 5.48651e-08 2.15586e-06 2.40399e-08 9.79479e-07 
8.49869e-07 4.78533e-07 4.29652e-08 5.77326e-08 5.65856e-08 1.43613e-07 4.43989e-08 4.96885e-07 2.04556e-08 
3.66041e-06 5.0626e-06 3.06772e-07 5.14242e-08 5.34314e-08 2.02683e-07 4.55033e-06 6.60482e-08 4.65495e-08 
1.88489e-07 5.40049e-08 1.09347e-07 3.92375e-08 1.91652e-08 1.90066e-07 1.38264e-06 8.62639e-08 1.439e-07 
3.76594e-07 6.36629e-06 2.38353e-06 3.89507e-08 1.66696e-07 2.03012e-06 5.27145e-08 1.59384e-07 1.47054e-07 
1.33864e-07 6.1779e-06 2.70196e-06 2.31501e-07 6.44711e-08 4.60539e-06 3.68307e-06 1.38882e-07 1.46337e-07 
6.33242e-08 4.80295e-06 1.01174e-06 1.69134e-07 2.76275e-06 3.96676e-08 6.04567e-08 4.39262e-06 5.20483e-06 
5.43007e-06 5.93097e-08 4.55306e-07 2.25479e-07 4.537e-06 2.00718e-06 2.15413e-06 2.36949e-07 1.21104e-07 
4.85845e-07 9.75894e-07 3.20688e-08 3.62266e-08 1.56803e-07 3.17238e-07 4.16494e-06 2.30109e-06 4.79823e-07 
2.08331e-06 3.00047e-06 2.42397e-07 3.13065e-06 2.356e-06 2.78942e-06 2.90469e-06 1.25118e-07 5.15909e-06 
3.70869e-08 2.83387e-06 4.19577e-06 5.23895e-06 2.63903e-07 2.4082e-07 3.06351e-08 9.54245e-07 4.80424e-06 
3.4574e-06 3.67518e-06 3.14371e-07 6.34675e-08 8.52307e-07 4.52553e-06 1.68703e-07 3.54945e-07 6.06001e-08 
4.13585e-07 2.84845e-08 2.89638e-06 1.58667e-07 3.95242e-08 7.22133e-08 1.37018e-07 2.53867e-07 1.30853e-07 
3.97512e-06 6.07999e-07 7.80916e-08 3.58371e-06 2.03227e-06 1.82208e-06 1.89234e-06 3.0723e-06 2.23329e-07 
6.53314e-08 2.58455e-07 1.94654e-07 3.1338e-06 2.27744e-06 3.43503e-06 2.12289e-07 1.47771e-07 3.0205e-08 
2.93447e-08 2.69221e-06 4.12566e-06 5.57516e-06 5.17109e-08 5.93097e-08 2.38526e-07 2.8713e-07 4.78676e-07 
7.44347e-07 2.72634e-06 2.09278e-07 3.42284e-06 9.69729e-07 8.97899e-07 2.76476e-06 3.72235e-06 3.67833e-06 
3.85197e-07 2.18741e-07 9.07084e-08 4.19778e-06 1.86796e-06 6.96326e-08 1.28272e-07 1.44358e-06 6.73386e-08 
1.11928e-07 3.26423e-08 1.87685e-06 1.29762e-06 2.88878e-06 1.27699e-07 6.60903e-07 1.0407e-06 1.3177e-06 
4.27376e-06 4.54025e-08 1.49922e-07 1.35728e-07 2.22754e-06 5.24211e-06 3.32292e-07 2.24906e-07 3.60833e-08 
4.18989e-06 3.72923e-06 1.4291e-06 3.13367e-07 4.89868e-08 1.63685e-07 1.62767e-06 6.4041e-08 1.77506e-06 
3.70816e-06 1.44617e-07 6.21772e-08 2.6591e-07 5.59252e-07 3.31719e-07 1.58094e-07 6.38394e-07 9.7145e-07 
2.10252e-06 8.94888e-07 1.99529e-07 4.43879e-06 7.22267e-07 4.5251e-06 2.70612e-06 2.15241e-06 2.23242e-06 
1.67054e-06 6.16037e-08 2.74943e-07 1.84474e-07 1.28429e-06 2.0383e-07 4.92736e-08 5.40049e-08 1.94367e-07 
1.51096e-06 5.38318e-06 3.31933e-06 1.39025e-07 5.12808e-08 4.04409e-07 4.29652e-08 1.08371e-06 2.54124e-06 
2.94312e-06 1.26723e-06 4.38545e-06 2.47568e-08 2.99946e-06 1.3025e-06 2.54154e-07 1.64846e-06 2.59038e-08 
4.65495e-08 6.13169e-08 4.56237e-06 3.48478e-06 1.442e-06 1.72431e-07 2.59889e-07 4.08146e-08 1.25261e-07 
4.5717e-07 3.30572e-07 3.91935e-07 6.57615e-08 2.68204e-07 8.36831e-08 3.85454e-06 8.84709e-07 6.41844e-08 
2.98599e-07 5.61259e-07 6.03133e-08 1.80747e-07 3.16707e-06 1.10378e-06 2.24933e-06 5.62706e-06 6.47579e-08 
7.85065e-07 6.76254e-08 1.46481e-07 1.95886e-06 1.54996e-06 1.4172e-06 1.4476e-07 9.21422e-08 5.01338e-08 
1.55656e-07 1.86481e-06 2.14596e-06 3.8144e-06 1.41447e-06 1.56087e-07 2.11142e-07 3.85484e-07 6.81988e-08 
6.79121e-08 3.41826e-06 2.18568e-06 5.40039e-06 2.20604e-07 2.61466e-07 1.44473e-07 5.08382e-06 4.75851e-06 
2.15241e-06 5.60121e-08 1.51929e-07 5.56082e-06 3.50629e-06 1.45533e-06 2.69065e-07 1.80173e-07 6.71952e-08 
3.57526e-07 7.50655e-07 1.0691e-07 1.29706e-07 1.04959e-06 2.50597e-06 2.5345e-06 4.26803e-06 1.23354e-06 
7.03494e-08 1.40172e-07 4.72511e-07 8.09438e-07 4.39535e-07 3.45913e-07 3.51791e-07 3.22427e-06 3.04692e-06 
7.07643e-07 2.54297e-07 4.16882e-07 6.5188e-08 3.73154e-07 6.54022e-07 7.59974e-07 1.28501e-06 2.91631e-06 
2.2978e-07 2.73653e-07 6.50446e-08 3.10652e-08 3.65367e-06 2.62167e-06 6.38977e-08 4.64482e-07 2.71573e-06 
2.10712e-07 3.4432e-06 5.1525e-06 1.49778e-07 4.7123e-08 3.32158e-08 5.76457e-07 5.39896e-07 7.43639e-08 
2.88964e-06 2.90398e-06 2.34941e-06 3.14685e-06 3.95242e-08 2.99182e-08 4.49724e-08 2.54727e-07 2.81977e-08 
7.07796e-08 3.90072e-07 2.56891e-06 9.89658e-07 4.70074e-07 6.93458e-08 5.41516e-06 4.54517e-06 2.09852e-07 
1.41319e-07 6.06001e-08 6.63197e-07 3.14026e-06 2.05736e-06 2.00962e-07 8.10442e-07 1.69707e-07 3.08807e-06 
1.83843e-06 4.68768e-06 6.93879e-07 7.07213e-07 1.75012e-07 2.86126e-07 1.43512e-06 6.16314e-07 2.06209e-06 
6.44711e-08 4.5588e-07 3.28592e-06 2.4968e-06 1.03812e-06 7.28862e-07 3.80322e-07 3.77411e-06 1.94252e-06 
2.46425e-06 1.77219e-06 2.47702e-07 6.79399e-07 4.80338e-06 4.3682e-08 2.79101e-07 6.20472e-07 5.30748e-06 
3.18098e-07 4.48524e-06 2.85666e-06 2.21761e-08 6.08859e-07 3.31432e-07 9.29441e-07 5.71725e-07 1.16902e-06 
7.78613e-07 3.79117e-06 3.57439e-06 4.79105e-06 5.05959e-06 1.44128e-06 1.68989e-06 1.90653e-06 3.65134e-08 
5.37182e-08 5.40613e-07 1.83758e-07 6.40544e-07 6.09863e-07 8.30514e-07 1.05289e-06 2.55257e-06 3.81239e-06 
3.12678e-06 4.77012e-06 4.46818e-06 1.00572e-06 4.08146e-08 4.01111e-07 6.46279e-07 5.10792e-07 3.76021e-07 
6.23913e-07 2.62469e-07 4.57542e-06 3.38772e-06 6.58365e-06 2.03227e-06 1.1987e-06 1.36257e-06 4.89185e-06 
3.93153e-06 3.7517e-08 4.65495e-08 3.49363e-08 1.28329e-06 3.85927e-06 2.36432e-06 3.61296e-06 1.55025e-06 
3.86042e-06 1.68847e-07 5.21258e-07 4.16309e-07 5.52943e-07 4.77959e-07 4.17312e-07 3.2326e-07 1.9094e-06 
2.29077e-06 5.54692e-06 3.66213e-06 3.34843e-06 2.93294e-06 5.56513e-06 5.06289e-06 4.66417e-06 2.1041e-06 
1.40316e-07 5.94531e-08 1.65406e-07 2.00389e-07 2.13158e-08 3.20966e-07 2.69495e-07 6.11736e-08 2.82828e-07 
3.7926e-06 4.00508e-06 6.4929e-07 1.77306e-07 6.54882e-07 5.48651e-08 4.86346e-06 2.49479e-06 5.42204e-06 
9.18258e-07 2.01205e-06 2.60433e-06 3.89382e-06 4.91751e-06 1.9266e-06 4.1562e-06 3.79404e-06 5.3158e-06 
6.24639e-08 1.93937e-07 1.33577e-07 2.80965e-07 5.5323e-07 8.38265e-08 1.30666e-06 2.69881e-06 3.93784e-06 
4.99579e-06 5.36999e-06 5.05414e-06 4.05269e-07 9.10373e-07 1.29563e-07 7.14525e-07 5.70157e-08 1.82538e-06 
9.40768e-07 8.39116e-07 7.53379e-07 5.96112e-06 5.97963e-07 5.6729e-08 1.83614e-07 4.219e-07 6.88431e-07 
9.35463e-07 3.60823e-07 4.51149e-07 8.2994e-07 2.32661e-06 3.75834e-06 3.76923e-06 1.35125e-06 3.35087e-06 
9.34603e-07 5.34476e-06 1.98553e-06 2.48432e-06 4.94776e-06 2.31228e-06 1.3415e-07 1.95371e-07 5.2986e-07 
1.49247e-06 3.36163e-07 4.91006e-07 7.74598e-07 5.85374e-06 1.33605e-06 4.95149e-06 2.71946e-06 4.12136e-06 
4.22115e-06 1.39856e-06 9.31735e-07 3.22915e-06 3.26413e-06 5.19537e-07 4.06129e-07 8.42127e-07 7.16245e-07 
3.73482e-06 3.78615e-06 2.94469e-06 3.81067e-06 4.4829e-08 1.61391e-07 5.7617e-07 2.77193e-06 4.17985e-06 
1.79441e-06 1.83255e-06 1.9322e-07 4.83551e-07 1.26122e-07 5.29144e-07 6.57319e-07 9.57542e-07 9.80339e-07 
7.79186e-07 5.18543e-08 1.09819e-06 1.05876e-06 2.93107e-06 4.29785e-06 1.0678e-06 7.25277e-06 1.47483e-06 
4.65916e-07 3.05625e-07 4.05269e-07 7.04489e-07 3.22399e-07 2.67918e-07 3.1136e-07 2.86843e-07 2.51573e-07 
2.09205e-06 1.14507e-06 1.31626e-06 3.1576e-06 4.23849e-06 1.32931e-06 2.34912e-06 3.02212e-06 2.29765e-06 
6.71326e-06 1.73635e-06 1.58967e-06 8.1675e-07 3.55089e-07 1.75299e-07 1.59814e-07 3.01538e-06 5.56814e-07 
4.66747e-06 1.77577e-06 4.96454e-07 2.0066e-06 6.24639e-08 3.61397e-07 2.06697e-07 9.34173e-07 6.37534e-07 
2.66771e-07 2.78469e-06 6.01747e-06 5.29085e-06 4.95937e-06 6.51483e-06 5.01758e-06 5.02772e-08 3.26987e-07 
5.81627e-08 1.37161e-07 5.84342e-07 6.26207e-07 2.0965e-06 2.4697e-06 6.32672e-06 5.84542e-06 1.60803e-06 
4.70603e-06 6.53074e-06 3.21079e-06 4.82446e-06 5.87137e-06 1.03167e-06 3.862e-07 4.23764e-07 6.21906e-07 
4.22617e-07 4.95881e-07 1.38107e-06 8.09591e-08 2.26453e-06 5.46935e-06 3.64005e-06 3.92279e-06 2.81953e-06 
6.8767e-06 3.05208e-06 6.25489e-06 1.63685e-07 2.39887e-06 1.14078e-07 3.14944e-07 1.42264e-06 3.20392e-07 
3.00018e-06 1.71756e-06 3.10986e-06 2.68849e-06 4.30115e-06 2.31443e-06 2.97581e-06 1.96661e-07 2.77676e-08 
5.71869e-07 5.26993e-07 1.93507e-07 4.67063e-07 3.76594e-07 1.17246e-06 4.09284e-07 1.93937e-07 3.88608e-06 
5.0583e-06 4.16752e-06 2.22009e-06 2.82914e-06 3.16319e-06 1.05476e-07 4.26775e-07 5.58535e-07 2.36806e-07 
4.51158e-08 4.28639e-07 4.26784e-08 3.466e-06 6.77778e-06 3.09395e-06 4.00207e-06 2.86412e-06 5.70792e-06 
3.9658e-06 5.30347e-06 2.12002e-07 2.45063e-06 4.17599e-07 2.18311e-07 2.64773e-08 5.47209e-07 7.2026e-07 
4.94304e-07 8.82711e-08 8.06723e-08 2.23759e-07 5.78607e-07 1.47942e-06 3.21826e-07 8.09725e-07 1.56315e-06 
3.61267e-06 3.10283e-06 3.37782e-06 1.80832e-06 2.54884e-06 5.66592e-06 4.03548e-06 2.4654e-06 1.70839e-06 
5.58105e-07 1.13403e-06 1.63613e-06 5.91941e-07 2.5229e-07 5.63553e-07 9.44361e-08 7.01908e-07 1.51383e-06 
3.17323e-06 5.67208e-06 6.71096e-06 2.42454e-06 4.97601e-07 1.23741e-06 1.26408e-07 5.3918e-07 5.28427e-07 
3.30715e-07 1.1131e-06 5.35595e-07 8.10728e-07 8.40693e-07 1.1673e-06 6.2463e-07 1.39583e-06 3.99821e-07 
9.45929e-07 1.69333e-06 2.78182e-06 2.12173e-06 1.37777e-06 2.18883e-06 5.07092e-06 3.60106e-06 2.66311e-06 
5.31447e-08 6.22479e-07 7.61121e-07 2.49002e-08 6.2894e-08 9.70589e-07 3.30572e-07 1.25045e-06 3.60107e-07 
3.26414e-07 1.34293e-06 1.69075e-06 1.71986e-06 2.97036e-06 2.09679e-06 3.43589e-06 2.33378e-06 2.91431e-07 
3.32158e-08 2.60471e-08 4.41122e-08 2.29494e-07 5.62989e-08 5.05639e-08 6.03133e-08 1.24085e-06 3.64121e-07 
1.58193e-06 5.05057e-07 3.05337e-06 3.42829e-06 5.09042e-06 5.26877e-06 4.10329e-06 4.31104e-06 3.59503e-06 
5.253e-06 5.29558e-06 2.67171e-06 5.36068e-06 5.46147e-06 7.75172e-07 2.51e-07 4.31793e-07 6.72803e-07 
4.90146e-07 3.16234e-07 3.38887e-07 6.5947e-07 6.66495e-07 6.52301e-07 4.34087e-07 1.35584e-07 1.47197e-07 
7.86642e-07 2.19458e-07 1.77993e-06 4.22331e-07 1.40415e-06 2.69695e-06 3.13251e-06 2.6634e-06 2.1831e-06 
3.19803e-06 3.40191e-06 5.6771e-06 2.71502e-07 2.84845e-08 2.53303e-08 3.95242e-08 1.02421e-06 3.19819e-07 
8.71805e-07 1.07712e-06 1.1511e-06 7.04345e-07 2.50626e-06 5.06318e-06 4.00279e-06 2.73035e-06 2.58325e-06 
4.93027e-06 3.58858e-06 4.5727e-06 1.65118e-06 2.05994e-06 6.03439e-06 2.36098e-08 3.80905e-08 1.08816e-06 
6.42408e-07 5.87783e-07 5.45659e-06 1.93219e-06 4.25541e-06 4.20037e-07 2.16116e-06 6.50881e-06 3.229e-06 
5.01644e-06 1.7719e-06 6.47325e-06 3.28564e-07 6.92159e-07 5.69288e-07 3.81899e-07 4.11578e-07 2.33795e-07 
4.40007e-06 3.13337e-06 1.33906e-06 5.26089e-06 3.67031e-06 3.11746e-06 1.38164e-06 5.49373e-06 4.62402e-06 
2.94541e-06 4.44595e-06 3.71418e-06 1.33261e-06 1.56874e-06 1.04801e-06 9.73887e-07 3.00463e-07 5.01338e-08 
1.29103e-06 1.67756e-06 6.01977e-07 6.61047e-07 8.19044e-07 6.55599e-07 2.07844e-07 9.96397e-07 5.68724e-08 
2.23715e-06 3.41023e-06 2.59644e-06 3.83289e-06 3.68106e-06 4.42416e-06 2.7315e-06 2.5358e-07 1.56544e-06 
4.8097e-07 5.21975e-07 1.27067e-06 2.84836e-07 5.12808e-08 2.5444e-06 6.59297e-06 3.43331e-06 2.47386e-06 
6.21575e-06 2.45981e-06 3.03373e-06 3.00616e-08 5.37029e-07 1.03425e-06 3.27804e-06 3.09481e-06 3.45252e-06 
1.91269e-06 4.37886e-06 2.65107e-06 1.31526e-06 4.85227e-06 5.52297e-06 3.56908e-06 6.96173e-07 3.64121e-07 
2.08848e-07 1.1607e-06 1.93965e-06 1.14479e-06 2.41107e-07 2.00532e-07 2.19987e-06 7.72314e-08 3.32363e-06 
5.58219e-06 6.10292e-06 4.3433e-06 3.57654e-06 1.06421e-06 3.38299e-06 2.21406e-06 3.72393e-06 3.97282e-06 
2.37278e-06 4.4147e-06 5.82335e-07 2.19171e-07 6.14307e-07 2.84979e-07 4.59464e-07 1.77606e-06 6.92445e-07 
2.69781e-06 5.13099e-06 3.97612e-06 2.64562e-06 3.36678e-06 3.67518e-06 3.59331e-06 4.07806e-06 5.49143e-06 
1.21504e-06 1.63154e-06 4.85744e-06 4.55234e-06 3.91203e-06 1.60745e-06 5.80284e-06 6.28644e-07 3.20392e-07 
6.29791e-07 4.45844e-07 5.61555e-08 6.94596e-07 6.26781e-07 9.55831e-08 6.57615e-08 5.02476e-07 2.79186e-06 
3.99476e-06 2.68605e-06 5.3687e-06 1.90753e-06 2.27342e-06 3.02226e-06 3.10814e-06 4.8464e-06 3.20277e-06 
6.91283e-06 5.43681e-06 3.58428e-06 3.55761e-06 3.26886e-06 2.3041e-06 1.11023e-06 1.35798e-06 2.1487e-07 
3.14657e-07 1.38452e-07 1.39741e-06 1.00916e-06 2.92013e-08 1.522e-06 4.85271e-07 3.53081e-07 2.91788e-06 
4.36294e-06 2.3854e-06 3.13825e-06 4.15132e-06 5.24956e-06 2.7639e-06 3.60708e-06 3.01337e-06 4.28667e-06 
3.60851e-06 3.61611e-06 5.28755e-06 3.09638e-06 3.41611e-07 3.27857e-08 1.80387e-06 1.71355e-06 4.36896e-06 
1.03597e-06 4.41456e-06 4.39878e-06 3.90658e-06 6.20529e-06 3.66902e-06 4.96884e-06 4.97027e-06 6.15453e-06 
1.2764e-06 1.35871e-07 1.85048e-07 1.44043e-07 8.32521e-07 4.36094e-07 7.22133e-08 3.02327e-07 9.55105e-07 
2.0704e-06 8.72952e-07 4.02774e-06 4.93973e-06 3.04448e-06 3.84995e-06 3.07387e-06 3.46829e-06 5.01959e-06 
3.17237e-06 1.19755e-06 6.1541e-06 4.51477e-06 4.67205e-06 3.28979e-06 4.9417e-08 4.28218e-08 3.26127e-07 
5.12656e-07 5.60121e-08 4.50145e-07 6.58323e-07 6.24917e-07 2.25336e-07 1.36158e-07 4.22474e-07 4.90576e-07 
4.21971e-06 2.83788e-06 3.6445e-06 2.67171e-06 5.32282e-06 3.41195e-06 3.55761e-06 7.61981e-07 4.18173e-07 
8.13596e-07 3.79749e-07 2.33221e-07 7.68012e-08 2.7566e-07 5.60399e-07 9.01627e-07 1.2526e-06 5.75453e-07 
4.06731e-06 2.37321e-06 3.54385e-06 1.84301e-06 3.70529e-06 5.34519e-06 3.82228e-06 5.58176e-06 3.75447e-06 
5.30619e-06 3.08119e-06 6.9603e-07 2.01106e-07 3.19962e-07 3.59399e-08 5.27136e-07 2.97166e-07 1.76502e-06 
1.38881e-06 4.45127e-07 9.08652e-07 7.65145e-08 3.45483e-07 1.61822e-07 3.68996e-07 2.0555e-07 1.02306e-06 
2.57135e-06 3.8987e-06 2.673e-06 3.36076e-06 2.42941e-06 4.66804e-06 2.87071e-06 4.10516e-06 5.21888e-06 
4.35032e-06 2.40303e-06 4.80539e-06 2.9348e-06 3.21194e-06 3.37754e-06 3.79275e-06 5.40899e-06 4.76697e-06 
3.65009e-06 5.99338e-06 1.47899e-06 1.36974e-06 5.49301e-06 3.8664e-08 8.18901e-07 2.25479e-07 8.55031e-07 
1.89923e-07 3.44049e-07 1.11124e-06 8.33811e-07 2.64763e-07 1.23941e-06 3.31289e-07 3.81024e-06 5.24483e-06 
2.98814e-06 5.18834e-06 3.13438e-06 3.07301e-06 1.2073e-06 4.56409e-06 4.02802e-06 1.79355e-06 2.15241e-06 
4.15706e-06 2.13478e-06 4.37369e-06 5.36856e-06 1.73821e-06 3.46199e-07 5.06634e-07 1.26608e-06 2.66627e-07 
8.23775e-07 6.06565e-07 5.45784e-08 9.9697e-07 6.08868e-08 3.74157e-07 1.28329e-06 8.79261e-07 1.58279e-06 
6.27109e-06 2.83759e-06 3.84952e-06 4.13383e-06 2.49493e-06 3.47804e-06 3.98042e-06 4.5565e-06 5.45817e-06 
4.34029e-06 5.47609e-06 9.022e-07 1.18551e-06 3.81899e-07 9.83923e-07 3.23403e-07 2.08274e-07 9.19405e-07 
4.71938e-07 1.27985e-06 4.61185e-07 1.11928e-07 1.09905e-06 9.30732e-07 1.9408e-07 1.62538e-07 5.04913e-07 
1.00314e-06 6.79972e-07 1.20816e-06 2.08274e-07 8.03856e-08 3.23732e-06 3.14542e-06 5.56269e-06 3.7883e-06 
6.95785e-06 4.98446e-06 2.66813e-06 3.9549e-06 2.65795e-06 4.51305e-06 3.20822e-07 3.8664e-08 3.73736e-08 
1.63399e-07 2.23902e-07 2.04833e-07 8.56894e-07 4.03692e-07 4.05986e-07 7.03494e-08 5.80758e-07 3.43045e-07 
3.08893e-06 1.1336e-06 4.89242e-06 3.37539e-06 3.53668e-06 3.41926e-06 2.18883e-06 2.20001e-06 1.27798e-06 
1.90553e-06 4.73385e-06 3.27216e-06 4.33728e-06 1.96948e-07 4.85567e-08 4.94304e-07 6.39684e-07 9.1712e-08 
7.43639e-08 9.75464e-07 1.88776e-07 3.9552e-07 4.41112e-07 1.22909e-06 1.03754e-06 3.69999e-07 8.30084e-07 
4.22331e-07 8.03273e-07 1.11812e-06 5.98106e-07 4.61041e-07 3.92796e-07 1.36644e-06 4.29183e-06 3.17022e-06 
3.03473e-06 2.79401e-06 2.24948e-06 3.19588e-06 3.42155e-06 3.51432e-06 4.67779e-06 2.68777e-06 5.32913e-06 
2.32131e-06 1.62767e-06 3.56091e-06 4.26745e-06 2.07127e-06 1.21534e-07 5.9022e-07 9.2385e-07 8.57181e-07 
5.52227e-07 7.29866e-07 6.36817e-07 9.64998e-07 6.54996e-06 3.77411e-06 5.55996e-06 4.777e-06 5.46993e-06 
4.4699e-06 4.83306e-06 3.73669e-06 3.25825e-06 3.87605e-06 1.31268e-06 3.18599e-06 4.12896e-06 3.60421e-06 
2.10783e-06 4.47377e-06 3.6541e-06 4.90618e-06 6.01173e-06 2.38611e-06 1.10479e-06 4.13441e-07 1.40172e-07 
2.95302e-07 2.91001e-07 5.65847e-07 1.31999e-06 1.53075e-06 1.59641e-06 4.02411e-08 6.07434e-08 5.91663e-08 
5.91663e-08 7.46506e-08 1.25848e-06 3.88925e-07 1.92503e-07 5.09501e-07 1.17103e-06 4.98605e-07 1.55943e-07 
4.22044e-07 7.0836e-07 1.9236e-07 5.94048e-06 5.6533e-06 3.68321e-06 3.61769e-06 1.92187e-06 4.84611e-06 
4.37857e-06 4.49671e-06 4.3248e-06 5.97833e-06 3.61038e-06 5.52412e-06 5.05199e-06 4.66431e-06 2.25908e-06 
3.33711e-06 4.70116e-06 2.99316e-07 2.49279e-07 3.70429e-07 8.12736e-07 8.93598e-07 8.76107e-07 3.61254e-07 
1.35512e-06 4.7882e-07 3.16387e-08 4.94017e-07 9.03204e-07 3.30428e-07 6.41118e-07 6.37534e-07 1.71428e-07 
1.02765e-06 2.93295e-07 6.17318e-07 1.15568e-06 1.35154e-07 9.56682e-07 2.21751e-07 1.08471e-06 8.97612e-07 
1.66581e-06 2.52705e-06 2.35328e-06 5.00167e-06 2.95143e-06 2.84362e-06 2.32016e-06 3.34743e-06 2.12388e-06 