<?xml version="1.0"?>
<VTKFile type="UnstructuredGrid" version="0.1" byte_order="LittleEndian" compressor="vtkZLibDataCompressor">
  <UnstructuredGrid>
    <Piece NumberOfPoints="14" NumberOfCells="5">
      <PointData>
        <DataArray type="Float32" Name="Temperature" format="ascii" RangeMin="9.5" RangeMax="20">
          9.5 14.5 15 16 15.5 17
          17 17.5 18.5 20 17.5 18
          17.5 16.5
        </DataArray>
      </PointData>
      <CellData>
      </CellData>
      <Points>
        <DataArray type="Float32" Name="Points" NumberOfComponents="3" format="ascii" RangeMin="0" RangeMax="3.4641016151">
          0 0 0 1 1 0
          1 0 0 1 1 1
          1 0 1 2 2 0
          2 1 0 2 0 0
          2 2 1 2 1 1
          2 0 1 2 2 2
          2 1 2 2 0 2
        </DataArray>
      </Points>
      <Cells>
        <DataArray type="Int32" Name="connectivity" format="ascii" RangeMin="0" RangeMax="13">
          0 0 0 0 1 3
          4 2 1 3 4 2
          6 9 10 7 3 3
          4 4 9 12 13 10
          3 3 3 3 8 11
          12 9 1 1 3 3
          6 5 8 9
        </DataArray>
        <DataArray type="Int32" Name="offsets" format="ascii" RangeMin="8" RangeMax="40">
          8 16 24 32 40
        </DataArray>
        <DataArray type="UInt8" Name="types" format="ascii" RangeMin="12" RangeMax="12">
          12 12 12 12 12
        </DataArray>
      </Cells>
    </Piece>
  </UnstructuredGrid>
</VTKFile>
