<?xml version="1.0"?>
<VTKFile type="UnstructuredGrid" version="0.1" byte_order="LittleEndian" compressor="vtkZLibDataCompressor">
  <UnstructuredGrid>
    <Piece NumberOfPoints="6" NumberOfCells="4">
      <PointData>
        <DataArray type="Float32" Name="P" format="ascii" RangeMin="100" RangeMax="200">
          100 125 150 150 175 200
        </DataArray>
        <DataArray type="Float32" Name="X VECTOR" format="ascii" RangeMin="1" RangeMax="1">
          1 1 1 1 1 1
        </DataArray>
        <DataArray type="Float32" Name="Y VECTOR" format="ascii" RangeMin="1" RangeMax="1">
          1 1 1 1 1 1
        </DataArray>
        <DataArray type="Float32" Name="VECTOR" NumberOfComponents="3" format="ascii" RangeMin="1.4142135624" RangeMax="1.4142135624">
          1 1 0 1 1 0
          1 1 0 1 1 0
          1 1 0 1 1 0
        </DataArray>
      </PointData>
      <CellData>
        <DataArray type="Float32" Name="notVector1" format="ascii" RangeMin="1" RangeMax="4">
          1 2 3 4
        </DataArray>
        <DataArray type="Float32" Name="notVector2" format="ascii" RangeMin="22" RangeMax="55">
          22 33 44 55
        </DataArray>
        <DataArray type="Float32" Name="notVector3" format="ascii" RangeMin="22" RangeMax="55">
          22 33 44 55
        </DataArray>
        <DataArray type="Float32" Name="notVector4" format="ascii" RangeMin="22" RangeMax="55">
          22 33 44 55
        </DataArray>
        <DataArray type="Float32" Name="vector x" format="ascii" RangeMin="202" RangeMax="505">
          202 303 404 505
        </DataArray>
        <DataArray type="Float32" Name="vector y" format="ascii" RangeMin="212" RangeMax="515">
          212 313 414 515
        </DataArray>
        <DataArray type="Float32" Name="vector" NumberOfComponents="3" format="ascii" RangeMin="292.82759433" RangeMax="721.28357807">
          202 212 0 303 313 0
          404 414 0 505 515 0
        </DataArray>
      </CellData>
      <Points>
        <DataArray type="Float32" Name="Points" NumberOfComponents="3" format="ascii" RangeMin="0" RangeMax="1.6000000238">
          -1 0 0 0 0 0
          1 0 0 -0.5 0.80000001192 0
          0.5 0.80000001192 0 0 1.6000000238 0
        </DataArray>
      </Points>
      <Cells>
        <DataArray type="Int64" Name="connectivity" format="ascii" RangeMin="0" RangeMax="5">
          0 1 3 1 4 3
          2 4 1 4 5 3
        </DataArray>
        <DataArray type="Int64" Name="offsets" format="ascii" RangeMin="3" RangeMax="12">
          3 6 9 12
        </DataArray>
        <DataArray type="UInt8" Name="types" format="ascii" RangeMin="5" RangeMax="5">
          5 5 5 5
        </DataArray>
      </Cells>
    </Piece>
  </UnstructuredGrid>
</VTKFile>
