<?xml version="1.0"?>
<VTKFile type="UnstructuredGrid" version="0.1" byte_order="LittleEndian" compressor="vtkZLibDataCompressor">
  <UnstructuredGrid>
    <Piece NumberOfPoints="5" NumberOfCells="3">
      <PointData>
        <DataArray type="Float32" Name="data_001" format="ascii" RangeMin="0.5" RangeMax="1">
          1 0.80000001192 0.60000002384 0.89999997616 0.5
        </DataArray>
        <DataArray type="Float32" Name="data_002" format="ascii" RangeMin="0" RangeMax="0.5">
          0 0.20000000298 0.40000000596 0.10000000149 0.5
        </DataArray>
      </PointData>
      <CellData>
      </CellData>
      <Points>
        <DataArray type="Float32" Name="Points" NumberOfComponents="3" format="ascii" RangeMin="0" RangeMax="2">
          0 0 0 1 0 0
          2 0 0 0 1 0
          1 1 0
        </DataArray>
      </Points>
      <Cells>
        <DataArray type="Int32" Name="connectivity" format="ascii" RangeMin="0" RangeMax="4">
          0 1 3 4 3 1
          1 2 4
        </DataArray>
        <DataArray type="Int32" Name="offsets" format="ascii" RangeMin="3" RangeMax="9">
          3 6 9
        </DataArray>
        <DataArray type="UInt8" Name="types" format="ascii" RangeMin="5" RangeMax="5">
          5 5 5
        </DataArray>
      </Cells>
    </Piece>
  </UnstructuredGrid>
</VTKFile>
