<?xml version="1.0"?>
<VTKFile type="UnstructuredGrid" version="0.1" byte_order="LittleEndian" compressor="vtkZLibDataCompressor">
  <UnstructuredGrid>
    <Piece NumberOfPoints="6" NumberOfCells="4">
      <PointData>
        <DataArray type="Float32" Name="P" format="ascii" RangeMin="120" RangeMax="200">
          120 145 180 175 195 200
        </DataArray>
        <DataArray type="Float32" Name="X VECTOR" format="ascii" RangeMin="-1" RangeMax="-1">
          -1 -1 -1 -1 -1 -1
        </DataArray>
        <DataArray type="Float32" Name="Y VECTOR" format="ascii" RangeMin="-1" RangeMax="-1">
          -1 -1 -1 -1 -1 -1
        </DataArray>
        <DataArray type="Float32" Name="VECTOR" NumberOfComponents="3" format="ascii" RangeMin="1.4142135624" RangeMax="1.4142135624">
          -1 -1 0 -1 -1 0
          -1 -1 0 -1 -1 0
          -1 -1 0 -1 -1 0
        </DataArray>
      </PointData>
      <CellData>
        <DataArray type="Float32" Name="sjk1" format="ascii" RangeMin="100" RangeMax="400">
          100 200 300 400
        </DataArray>
        <DataArray type="Float32" Name="sjk2" format="ascii" RangeMin="22" RangeMax="55">
          22 33 44 55
        </DataArray>
      </CellData>
      <Points>
        <DataArray type="Float32" Name="Points" NumberOfComponents="3" format="ascii" RangeMin="0" RangeMax="1.6000000238">
          -1 0 0 0 0 0
          1 0 0 -0.5 0.80000001192 0
          0.5 0.80000001192 0 0 1.6000000238 0
        </DataArray>
      </Points>
      <Cells>
        <DataArray type="Int32" Name="connectivity" format="ascii" RangeMin="0" RangeMax="5">
          0 1 3 1 4 3
          2 4 1 4 5 3
        </DataArray>
        <DataArray type="Int32" Name="offsets" format="ascii" RangeMin="3" RangeMax="12">
          3 6 9 12
        </DataArray>
        <DataArray type="UInt8" Name="types" format="ascii" RangeMin="5" RangeMax="5">
          5 5 5 5
        </DataArray>
      </Cells>
    </Piece>
  </UnstructuredGrid>
</VTKFile>
