<?xml version="1.0"?>
<VTKFile type="UnstructuredGrid" version="0.1" byte_order="LittleEndian" compressor="vtkZLibDataCompressor">
  <UnstructuredGrid>
    <Piece NumberOfPoints="19" NumberOfCells="12">
      <PointData>
        <DataArray type="Float32" Name="scalar" format="ascii" RangeMin="100" RangeMax="180">
          100 150 100 120 140 100
          120 180 110 160 140 100
          170 150 140 130 120 110
          100
        </DataArray>
      </PointData>
      <CellData>
      </CellData>
      <Points>
        <DataArray type="Float32" Name="Points" NumberOfComponents="3" format="ascii" RangeMin="1" RangeMax="2.2360679775">
          0 0 1 -1 -1 0
          -1 1 0 1 1 0
          1 -1 0 -1 -1 0
          -1 1 0 1 1 0
          1 -1 0 -1 -1 -1
          -1 1 -1 1 1 -1
          1 -1 -1 -1 -1 -1
          -1 1 -1 1 1 -1
          1 -1 -1 0 0 -2
          1 0 -2
        </DataArray>
      </Points>
      <Cells>
        <DataArray type="Int32" Name="connectivity" format="ascii" RangeMin="0" RangeMax="18">
          0 1 2 0 2 3
          0 3 4 0 4 1
          5 9 10 6 6 10
          11 7 7 11 12 8
          8 12 9 5 13 17
          14 14 14 17 18 15
          15 16 18 18 16 13
          17 18
        </DataArray>
        <DataArray type="Int32" Name="offsets" format="ascii" RangeMin="3" RangeMax="44">
          3 6 9 12 16 20
          24 28 32 36 40 44
        </DataArray>
        <DataArray type="UInt8" Name="types" format="ascii" RangeMin="5" RangeMax="9">
          5 5 5 5 9 9
          9 9 9 9 9 9
        </DataArray>
      </Cells>
    </Piece>
  </UnstructuredGrid>
</VTKFile>
