TITLE = "Grid Size = 51, Number of Blocks = 24"
VARIABLES = "Block Sensor Range" "Number of Agents" "Frames"
ZONE T = "Grid"
I = 24, J = 31, K = 1
10	1	26823.7
10	2	10828.5
10	3	6381.7
10	4	4899.1
10	5	4188.5
10	6	3692.9
10	7	3394.0
10	8	3137.2
10	9	2945.8
10	10	2848.0
10	11	2762.6
10	12	2533.0
10	13	2456.5
10	14	2418.3
10	15	2340.5
10	16	2239.5
10	17	2358.7
10	18	2256.3
10	19	2207.9
10	20	2055.8
10	21	2217.8
10	22	2258.5
10	23	2210.9
10	24	2200.3
		
12	1	23597.4
12	2	10915.5
12	3	7165.8
12	4	5603.0
12	5	4636.7
12	6	4122.1
12	7	3538.5
12	8	3362.0
12	9	3072.3
12	10	2924.9
12	11	2789.9
12	12	2547.7
12	13	2550.6
12	14	2504.1
12	15	2338.4
12	16	2242.5
12	17	2307.9
12	18	2319.2
12	19	2254.1
12	20	2165.2
12	21	2078.2
12	22	2136.7
12	23	2093.6
12	24	2129.1
		
14	1	23316.6
14	2	10923.2
14	3	7327.9
14	4	5268.2
14	5	4530.8
14	6	4031.1
14	7	3607.4
14	8	3178.4
14	9	3067.4
14	10	2854.0
14	11	2788.6
14	12	2552.0
14	13	2457.7
14	14	2409.2
14	15	2364.0
14	16	2322.9
14	17	2222.1
14	18	2304.6
14	19	2267.1
14	20	2189.4
14	21	2140.2
14	22	2106.6
14	23	2107.5
14	24	2131.9
		
16	1	20731.0
16	2	10145.3
16	3	6658.9
16	4	5258.9
16	5	4495.2
16	6	3736.3
16	7	3571.0
16	8	3297.5
16	9	2928.5
16	10	2756.0
16	11	2668.6
16	12	2624.8
16	13	2432.3
16	14	2411.5
16	15	2422.0
16	16	2291.0
16	17	2404.1
16	18	2179.4
16	19	2168.6
16	20	2188.6
16	21	2177.1
16	22	2142.2
16	23	2078.4
16	24	1996.7
		
18	1	19231.9
18	2	9928.1
18	3	6673.5
18	4	5102.4
18	5	4290.6
18	6	3739.1
18	7	3463.5
18	8	3294.3
18	9	3006.7
18	10	2871.8
18	11	2627.2
18	12	2672.5
18	13	2372.5
18	14	2402.9
18	15	2254.5
18	16	2369.2
18	17	2242.4
18	18	2142.3
18	19	2190.8
18	20	2237.2
18	21	2137.0
18	22	2189.5
18	23	2142.1
18	24	1993.4
		
20	1	17459.3
20	2	9342.7
20	3	6676.4
20	4	5168.9
20	5	4178.8
20	6	3884.4
20	7	3400.0
20	8	3079.8
20	9	2947.8
20	10	2848.7
20	11	2789.8
20	12	2573.1
20	13	2567.6
20	14	2444.4
20	15	2344.9
20	16	2335.0
20	17	2271.9
20	18	2186.2
20	19	2139.9
20	20	2132.5
20	21	2197.4
20	22	2208.9
20	23	2131.9
20	24	2168.6
		
22	1	17472.9
22	2	9154.9
22	3	6020.1
22	4	4956.0
22	5	4107.3
22	6	3653.4
22	7	3474.2
22	8	3078.9
22	9	2899.5
22	10	2803.1
22	11	2688.5
22	12	2619.1
22	13	2510.6
22	14	2437.0
22	15	2325.5
22	16	2242.0
22	17	2338.5
22	18	2289.0
22	19	2203.8
22	20	2114.4
22	21	2063.1
22	22	2202.2
22	23	2129.7
22	24	2056.6
		
24	1	16512.2
24	2	9112.3
24	3	6204.2
24	4	4765.9
24	5	4120.6
24	6	3700.5
24	7	3352.0
24	8	3073.9
24	9	2989.2
24	10	2832.6
24	11	2746.7
24	12	2592.9
24	13	2432.2
24	14	2385.4
24	15	2394.9
24	16	2361.3
24	17	2282.2
24	18	2220.3
24	19	2299.6
24	20	2138.0
24	21	2165.6
24	22	2184.8
24	23	2127.5
24	24	2148.9
		
26	1	16003.6
26	2	8505.2
26	3	6174.2
26	4	4882.6
26	5	4071.7
26	6	3679.9
26	7	3272.1
26	8	3114.0
26	9	2911.5
26	10	2767.9
26	11	2604.4
26	12	2571.5
26	13	2418.3
26	14	2471.6
26	15	2338.8
26	16	2360.0
26	17	2266.0
26	18	2321.5
26	19	2182.4
26	20	2185.9
26	21	2076.4
26	22	2175.6
26	23	2079.2
26	24	2111.1
		
28	1	15798.7
28	2	8746.0
28	3	6128.9
28	4	4843.6
28	5	4208.6
28	6	3696.6
28	7	3401.8
28	8	3105.5
28	9	2916.7
28	10	2773.4
28	11	2713.6
28	12	2597.0
28	13	2521.7
28	14	2400.0
28	15	2465.3
28	16	2400.0
28	17	2336.2
28	18	2302.2
28	19	2237.4
28	20	2261.9
28	21	2028.0
28	22	2083.7
28	23	2083.5
28	24	2047.7
		
30	1	15883.9
30	2	8683.8
30	3	6064.0
30	4	4955.2
30	5	4088.9
30	6	3564.9
30	7	3243.8
30	8	3092.9
30	9	2886.7
30	10	2790.5
30	11	2710.6
30	12	2619.7
30	13	2491.0
30	14	2387.5
30	15	2409.3
30	16	2371.0
30	17	2248.9
30	18	2366.9
30	19	2100.1
30	20	2181.8
30	21	2107.9
30	22	2180.3
30	23	2124.5
30	24	2044.7
		
32	1	15580.5
32	2	8474.4
32	3	6103.6
32	4	4777.4
32	5	4064.9
32	6	3639.8
32	7	3406.9
32	8	3134.7
32	9	2894.3
32	10	2758.6
32	11	2612.4
32	12	2652.1
32	13	2469.3
32	14	2533.7
32	15	2396.5
32	16	2312.4
32	17	2451.6
32	18	2303.6
32	19	2153.6
32	20	2196.8
32	21	2217.4
32	22	2165.3
32	23	2258.4
32	24	2130.4
		
34	1	15987.1
34	2	8378.7
34	3	6059.1
34	4	4781.4
34	5	4038.8
34	6	3674.6
34	7	3284.2
34	8	3060.6
34	9	2964.6
34	10	2757.9
34	11	2716.1
34	12	2547.0
34	13	2541.2
34	14	2513.3
34	15	2565.5
34	16	2315.0
34	17	2357.7
34	18	2253.3
34	19	2373.3
34	20	2126.9
34	21	2188.5
34	22	2229.8
34	23	2161.1
34	24	2170.8
		
36	1	16331.0
36	2	8414.7
36	3	5977.7
36	4	4852.7
36	5	4022.4
36	6	3630.5
36	7	3290.4
36	8	3050.2
36	9	2873.2
36	10	2861.5
36	11	2723.4
36	12	2493.1
36	13	2471.6
36	14	2513.9
36	15	2418.7
36	16	2349.2
36	17	2290.5
36	18	2371.7
36	19	2243.4
36	20	2275.8
36	21	2154.1
36	22	2100.4
36	23	2035.5
36	24	2066.4
		
38	1	16189.5
38	2	8291.4
38	3	5939.7
38	4	4838.3
38	5	4153.7
38	6	3675.3
38	7	3293.4
38	8	3129.2
38	9	2939.0
38	10	2786.2
38	11	2678.4
38	12	2640.7
38	13	2525.5
38	14	2368.3
38	15	2339.0
38	16	2317.4
38	17	2366.5
38	18	2246.6
38	19	2342.2
38	20	2193.0
38	21	2123.3
38	22	2207.5
38	23	2123.0
38	24	2197.3
		
40	1	16300.0
40	2	8444.1
40	3	5926.4
40	4	4785.9
40	5	4201.4
40	6	3721.0
40	7	3356.7
40	8	3113.9
40	9	2834.9
40	10	2757.9
40	11	2641.4
40	12	2601.2
40	13	2517.6
40	14	2561.0
40	15	2374.8
40	16	2338.0
40	17	2233.1
40	18	2195.1
40	19	2271.4
40	20	2082.1
40	21	2380.8
40	22	2146.4
40	23	2272.9
40	24	2106.5
		
42	1	15704.8
42	2	8478.7
42	3	6129.6
42	4	4655.8
42	5	4092.9
42	6	3710.5
42	7	3390.5
42	8	2991.0
42	9	2796.3
42	10	2839.3
42	11	2720.1
42	12	2532.4
42	13	2542.1
42	14	2453.3
42	15	2365.0
42	16	2347.6
42	17	2194.9
42	18	2232.8
42	19	2124.4
42	20	2416.3
42	21	2235.3
42	22	2212.0
42	23	2098.8
42	24	2136.9
		
44	1	16118.1
44	2	8415.0
44	3	5996.8
44	4	4840.6
44	5	4084.7
44	6	3584.4
44	7	3330.4
44	8	3126.1
44	9	2876.3
44	10	2720.6
44	11	2725.5
44	12	2554.7
44	13	2534.8
44	14	2455.9
44	15	2497.1
44	16	2271.2
44	17	2238.9
44	18	2239.5
44	19	2236.7
44	20	2238.8
44	21	2113.8
44	22	2138.7
44	23	2189.4
44	24	2292.3
		
46	1	16212.6
46	2	8321.9
46	3	5968.3
46	4	4890.4
46	5	4091.0
46	6	3618.3
46	7	3285.2
46	8	3121.8
46	9	2998.1
46	10	2804.6
46	11	2578.1
46	12	2615.8
46	13	2497.7
46	14	2364.3
46	15	2407.3
46	16	2369.6
46	17	2319.9
46	18	2202.6
46	19	2304.6
46	20	2117.2
46	21	2155.9
46	22	2153.1
46	23	2087.0
46	24	2039.3
		
48	1	15668.2
48	2	8933.6
48	3	6062.0
48	4	4882.8
48	5	4101.6
48	6	3604.5
48	7	3347.8
48	8	3144.3
48	9	2961.6
48	10	2918.9
48	11	2613.9
48	12	2642.6
48	13	2516.2
48	14	2395.6
48	15	2433.6
48	16	2506.2
48	17	2334.5
48	18	2134.5
48	19	2244.6
48	20	2127.7
48	21	2063.5
48	22	2018.9
48	23	2086.1
48	24	2186.3
		
50	1	15628.1
50	2	8628.5
50	3	6054.8
50	4	4808.6
50	5	4188.0
50	6	3642.2
50	7	3375.5
50	8	3126.3
50	9	2890.0
50	10	2815.4
50	11	2575.3
50	12	2592.0
50	13	2484.2
50	14	2424.5
50	15	2318.5
50	16	2380.3
50	17	2197.4
50	18	2247.9
50	19	2311.1
50	20	2166.1
50	21	2356.3
50	22	2153.0
50	23	2155.9
50	24	2174.8
		
52	1	15520.8
52	2	8511.5
52	3	5957.2
52	4	4883.4
52	5	4212.8
52	6	3629.1
52	7	3376.2
52	8	3092.5
52	9	2947.9
52	10	2797.8
52	11	2745.3
52	12	2542.2
52	13	2469.4
52	14	2475.6
52	15	2430.9
52	16	2382.0
52	17	2281.8
52	18	2363.7
52	19	2222.9
52	20	2280.2
52	21	2235.4
52	22	2116.2
52	23	2149.2
52	24	2223.6
		
54	1	16000.9
54	2	8726.3
54	3	5968.6
54	4	4783.4
54	5	4035.6
54	6	3662.7
54	7	3339.5
54	8	3086.6
54	9	2946.2
54	10	2844.3
54	11	2700.3
54	12	2636.1
54	13	2360.5
54	14	2416.8
54	15	2324.5
54	16	2470.3
54	17	2349.3
54	18	2313.0
54	19	2338.4
54	20	2287.1
54	21	2111.6
54	22	2265.7
54	23	2168.8
54	24	2160.7
		
56	1	16038.6
56	2	8545.7
56	3	5972.9
56	4	4640.9
56	5	4059.3
56	6	3608.9
56	7	3344.0
56	8	3207.6
56	9	2905.5
56	10	2821.3
56	11	2648.2
56	12	2630.3
56	13	2486.5
56	14	2480.6
56	15	2378.2
56	16	2228.7
56	17	2289.9
56	18	2329.3
56	19	2384.5
56	20	2165.3
56	21	2339.7
56	22	2094.5
56	23	2052.3
56	24	2132.8
		
58	1	15729.3
58	2	8587.1
58	3	5963.3
58	4	4802.1
58	5	3964.9
58	6	3507.4
58	7	3335.0
58	8	3232.3
58	9	2932.5
58	10	2768.5
58	11	2587.9
58	12	2577.4
58	13	2446.9
58	14	2424.3
58	15	2335.5
58	16	2466.2
58	17	2377.9
58	18	2296.3
58	19	2248.4
58	20	2352.4
58	21	2171.1
58	22	2201.6
58	23	1993.7
58	24	2183.7
		
60	1	15744.5
60	2	8443.8
60	3	6014.5
60	4	4887.1
60	5	4091.1
60	6	3603.8
60	7	3349.4
60	8	3187.1
60	9	2878.1
60	10	2893.5
60	11	2731.3
60	12	2586.7
60	13	2477.3
60	14	2470.9
60	15	2313.8
60	16	2287.6
60	17	2218.2
60	18	2306.0
60	19	2299.5
60	20	2190.4
60	21	2227.2
60	22	2077.4
60	23	2131.6
60	24	2147.9
		
62	1	15979.7
62	2	8486.6
62	3	6033.6
62	4	4895.9
62	5	4041.9
62	6	3568.1
62	7	3188.8
62	8	3084.1
62	9	2919.4
62	10	2787.9
62	11	2677.1
62	12	2529.3
62	13	2531.6
62	14	2421.3
62	15	2294.9
62	16	2353.7
62	17	2233.9
62	18	2347.8
62	19	2207.4
62	20	2317.1
62	21	2412.6
62	22	2117.6
62	23	2205.0
62	24	2218.4
		
64	1	15777.5
64	2	8296.3
64	3	6022.3
64	4	4796.2
64	5	4222.8
64	6	3690.7
64	7	3327.7
64	8	3154.0
64	9	2907.9
64	10	2845.7
64	11	2684.4
64	12	2495.7
64	13	2509.2
64	14	2479.6
64	15	2426.5
64	16	2448.5
64	17	2321.2
64	18	2263.5
64	19	2171.6
64	20	2286.0
64	21	2096.5
64	22	2082.5
64	23	2150.7
64	24	2133.9
		
66	1	15418.3
66	2	8462.2
66	3	6049.3
66	4	4842.9
66	5	4193.6
66	6	3700.0
66	7	3344.4
66	8	3108.9
66	9	3027.3
66	10	2683.5
66	11	2668.7
66	12	2635.1
66	13	2543.8
66	14	2458.6
66	15	2388.4
66	16	2388.1
66	17	2335.3
66	18	2260.0
66	19	2224.2
66	20	2166.7
66	21	2170.2
66	22	2147.3
66	23	2201.1
66	24	2172.7
		
68	1	15546.3
68	2	8345.7
68	3	6096.8
68	4	4722.5
68	5	4143.9
68	6	3621.6
68	7	3273.3
68	8	3142.6
68	9	2937.4
68	10	2795.6
68	11	2748.7
68	12	2542.9
68	13	2491.7
68	14	2437.2
68	15	2495.9
68	16	2340.6
68	17	2267.3
68	18	2287.9
68	19	2328.1
68	20	2292.9
68	21	2182.1
68	22	2125.4
68	23	2205.5
68	24	2105.1
		
70	1	16040.6
70	2	8569.4
70	3	5888.4
70	4	4839.6
70	5	4219.4
70	6	3697.8
70	7	3331.0
70	8	3172.8
70	9	2963.0
70	10	2833.7
70	11	2739.0
70	12	2552.8
70	13	2507.7
70	14	2446.2
70	15	2461.4
70	16	2270.5
70	17	2373.3
70	18	2293.2
70	19	2164.2
70	20	2233.1
70	21	2057.4
70	22	2148.1
70	23	2253.0
70	24	2039.8