TITLE = "tiny.tec"
VARIABLES = "X", "Y", "data_001", "data_002"
ZONE  NODES=5,  ELEMENTS=3,  DATAPACKING=POINT,  ZONETYPE=FETRIANGLE
     0.0         0.0        1.0        0.0    
     1.0         0.0        0.8        0.2    
     2.0         0.0        0.6        0.4    
     0.0         1.0        0.9        0.1    
     1.0         1.0        0.5        0.5    
         1         2         4
         5         4         2
         2         3         5
