TITLE = "Example: FE-Volume Brick Data" 
VARIABLES = "X", "Y", "Z", "Temperature" 
ZONE NODES=14, ELEMENTS=5, DATAPACKING=POINT, ZONETYPE=FEBRICK 
0.0 0.0 0.0 9.5 
1.0 1.0 0.0 14.5 
1.0 0.0 0.0 15.0 
1.0 1.0 1.0 16.0 
1.0 0.0 1.0 15.5 
2.0 2.0 0.0 17.0 
2.0 1.0 0.0 17.0 
2.0 0.0 0.0 17.5 
2.0 2.0 1.0 18.5 
2.0 1.0 1.0 20.0 
2.0 0.0 1.0 17.5 
2.0 2.0 2.0 18.0 
2.0 1.0 2.0 17.5 
2.0 0.0 2.0 16.5 
1 1 1 1 2 4 5 3 
2 4 5 3 7 10 11 8 
4 4 5 5 10 13 14 11
4 4 4 4 9 12 13 10
2 2 4 4 7 6 9 10
